# Solver information
# Time        	U_solver      	Ux_initial    	Ux_final      	Ux_iters      	Uy_initial    	Uy_final      	Uy_iters      	Uz_initial    	Uz_final      	Uz_iters      	U_converged   	k_solver      	k_initial     	k_final       	k_iters       	k_converged   	omega_solver  	omega_initial 	omega_final   	omega_iters   	omega_converged	p_solver      	p_initial     	p_final       	p_iters       	p_converged   
1             	smoothSolver	1.000000e+00	9.569950e-02	12	1.000000e+00	9.890030e-02	12	1.000000e+00	8.738080e-02	13	false	smoothSolver	1.000000e+00	6.032070e-02	4	true	smoothSolver	1.446610e-01	9.427170e-03	3	true	GAMG	1.000000e+00	6.361740e-03	10	true
2             	smoothSolver	3.446740e-01	2.777660e-02	11	7.551020e-01	6.707220e-02	11	5.239510e-01	4.868680e-02	11	false	smoothSolver	7.628610e-01	6.047740e-02	3	true	smoothSolver	1.036840e-01	6.940680e-03	5	true	GAMG	2.469690e-01	2.181670e-03	6	true
3             	smoothSolver	3.951370e-01	3.852950e-02	6	5.881380e-01	5.638610e-02	7	4.833060e-01	4.412900e-02	8	false	smoothSolver	1.054490e-01	8.733110e-03	3	true	smoothSolver	4.614860e-02	2.436670e-03	4	true	GAMG	5.074250e-01	4.347190e-03	8	true
4             	smoothSolver	4.023050e-01	3.025950e-02	7	5.566860e-01	4.494550e-02	7	4.570120e-01	3.856680e-02	7	false	smoothSolver	6.353860e-02	5.237910e-03	3	true	smoothSolver	3.730220e-02	2.268070e-03	3	true	GAMG	9.553830e-02	8.138320e-04	12	true
5             	smoothSolver	3.385100e-01	3.326560e-02	6	4.561600e-01	3.768800e-02	7	3.465510e-01	2.962070e-02	7	false	smoothSolver	5.578180e-02	4.986220e-03	3	true	smoothSolver	2.567750e-02	1.526740e-03	3	true	GAMG	9.901430e-02	9.353080e-04	11	true
6             	smoothSolver	2.601490e-01	2.399740e-02	7	4.016270e-01	3.480700e-02	7	2.836570e-01	2.302270e-02	7	false	smoothSolver	6.206300e-02	4.902750e-03	3	true	smoothSolver	2.345000e-02	1.380320e-03	3	true	GAMG	1.209610e-01	1.162130e-03	11	true
7             	smoothSolver	2.348200e-01	2.020400e-02	7	3.691970e-01	3.308430e-02	7	2.425850e-01	2.183290e-02	7	false	smoothSolver	6.942120e-02	5.188020e-03	3	true	smoothSolver	2.407090e-02	1.146910e-03	3	true	GAMG	1.267580e-01	1.135060e-03	11	true
8             	smoothSolver	2.501680e-01	2.466450e-02	6	4.102230e-01	3.795790e-02	6	2.595430e-01	2.581980e-02	6	false	smoothSolver	6.422940e-02	4.481970e-03	3	true	smoothSolver	2.247750e-02	1.009320e-03	3	true	GAMG	1.218860e-01	1.113430e-03	10	true
9             	smoothSolver	2.160870e-01	1.769380e-02	7	3.658020e-01	2.917020e-02	7	2.268620e-01	1.785980e-02	7	false	smoothSolver	6.843370e-02	4.147170e-03	3	true	smoothSolver	2.086960e-02	9.395740e-04	3	true	GAMG	1.135580e-01	1.070110e-03	10	true
10            	smoothSolver	1.967100e-01	1.607730e-02	7	3.929320e-01	3.338700e-02	6	2.196580e-01	1.680920e-02	7	false	smoothSolver	5.932310e-02	3.514350e-03	3	true	smoothSolver	1.976210e-02	8.555990e-04	3	true	GAMG	1.090810e-01	1.040090e-03	10	true
11            	smoothSolver	1.850150e-01	1.499900e-02	7	3.433480e-01	2.540860e-02	7	2.076030e-01	1.595080e-02	7	false	smoothSolver	5.484850e-02	3.030900e-03	3	true	smoothSolver	1.386540e-02	7.124120e-04	3	true	GAMG	1.063570e-01	9.683740e-04	10	true
12            	smoothSolver	1.738180e-01	1.452390e-02	7	3.176640e-01	3.094260e-02	6	2.006560e-01	1.541280e-02	7	false	smoothSolver	4.998850e-02	2.589640e-03	3	true	smoothSolver	1.214070e-02	6.274140e-04	3	true	GAMG	1.004700e-01	8.752360e-04	9	true
13            	smoothSolver	1.614160e-01	1.408800e-02	7	2.929770e-01	2.222000e-02	7	1.900600e-01	1.509640e-02	7	false	smoothSolver	4.825820e-02	2.355770e-03	3	true	smoothSolver	1.087830e-02	5.797170e-04	3	true	GAMG	9.695570e-02	9.057790e-04	9	true
14            	smoothSolver	1.512190e-01	1.353880e-02	7	2.733980e-01	2.141360e-02	7	1.772360e-01	1.426270e-02	7	false	smoothSolver	4.435460e-02	2.066530e-03	3	true	smoothSolver	1.033930e-02	5.190930e-04	3	true	GAMG	9.545680e-02	8.193120e-04	9	true
15            	smoothSolver	1.439670e-01	1.299680e-02	7	2.647370e-01	2.104090e-02	7	1.642740e-01	1.311360e-02	7	false	smoothSolver	4.077590e-02	1.890890e-03	3	true	smoothSolver	8.963930e-03	4.753680e-04	3	true	GAMG	9.164060e-02	7.689570e-04	9	true
16            	smoothSolver	1.333500e-01	1.229360e-02	7	2.465490e-01	1.997340e-02	7	1.487720e-01	1.195900e-02	7	false	smoothSolver	3.767530e-02	1.741340e-03	3	true	smoothSolver	8.194490e-03	4.380260e-04	3	true	GAMG	8.687640e-02	7.391680e-04	9	true
17            	smoothSolver	1.253030e-01	1.175300e-02	7	2.327910e-01	1.846020e-02	7	1.355920e-01	1.102280e-02	7	false	smoothSolver	3.787030e-02	1.679790e-03	3	true	smoothSolver	7.677760e-03	4.051270e-04	3	true	GAMG	8.378680e-02	6.659370e-04	9	true
18            	smoothSolver	1.186180e-01	1.109590e-02	7	2.219750e-01	1.700430e-02	7	1.272330e-01	1.036970e-02	7	false	smoothSolver	3.589080e-02	1.589750e-03	3	true	smoothSolver	7.163720e-03	3.745410e-04	3	true	GAMG	8.105170e-02	6.349550e-04	9	true
19            	smoothSolver	1.121530e-01	1.052900e-02	7	2.074750e-01	1.612950e-02	7	1.221060e-01	1.004390e-02	7	false	smoothSolver	3.571290e-02	1.543980e-03	3	true	smoothSolver	6.578570e-03	3.444930e-04	3	true	GAMG	7.912460e-02	6.272400e-04	10	true
20            	smoothSolver	1.073370e-01	9.957150e-03	7	2.001090e-01	1.512350e-02	7	1.194860e-01	9.807670e-03	7	false	smoothSolver	3.705560e-02	1.474940e-03	3	true	smoothSolver	6.700140e-03	3.210590e-04	3	true	GAMG	7.682810e-02	7.549900e-04	9	true
21            	smoothSolver	1.030420e-01	9.409350e-03	7	1.901350e-01	1.458880e-02	7	1.198780e-01	9.850960e-03	7	false	smoothSolver	3.485600e-02	1.444230e-03	3	true	smoothSolver	6.795720e-03	3.006730e-04	3	true	GAMG	7.484360e-02	5.972490e-04	10	true
22            	smoothSolver	1.009350e-01	9.088650e-03	7	1.865170e-01	1.404800e-02	7	1.216520e-01	1.000040e-02	7	false	smoothSolver	3.262280e-02	1.416490e-03	3	true	smoothSolver	5.666090e-03	2.868430e-04	3	true	GAMG	7.398760e-02	7.361210e-04	9	true
23            	smoothSolver	9.955140e-02	8.842660e-03	7	1.779990e-01	1.364470e-02	7	1.218290e-01	1.003640e-02	7	false	smoothSolver	3.413120e-02	1.409290e-03	3	true	smoothSolver	5.262740e-03	2.718880e-04	3	true	GAMG	7.395410e-02	6.009240e-04	10	true
24            	smoothSolver	9.909560e-02	8.520590e-03	7	1.753570e-01	1.319370e-02	7	1.223170e-01	9.966390e-03	7	false	smoothSolver	3.177940e-02	1.427250e-03	3	true	smoothSolver	5.156810e-03	2.553100e-04	3	true	GAMG	7.354640e-02	7.025090e-04	9	true
25            	smoothSolver	9.839260e-02	8.149040e-03	7	1.689810e-01	1.283130e-02	7	1.228290e-01	9.883690e-03	7	false	smoothSolver	3.361310e-02	1.467960e-03	3	true	smoothSolver	4.648560e-03	2.410870e-04	3	true	GAMG	7.317990e-02	5.792430e-04	10	true
26            	smoothSolver	9.761690e-02	7.728790e-03	7	1.680210e-01	1.650760e-02	6	1.240690e-01	9.789320e-03	7	false	smoothSolver	3.173260e-02	1.488510e-03	3	true	smoothSolver	4.496460e-03	2.209080e-04	3	true	GAMG	7.256630e-02	6.395710e-04	9	true
27            	smoothSolver	9.615010e-02	7.183030e-03	7	1.598300e-01	1.597180e-02	6	1.248760e-01	9.514350e-03	7	false	smoothSolver	3.192680e-02	1.469800e-03	3	true	smoothSolver	4.016230e-03	2.028750e-04	3	true	GAMG	7.217540e-02	6.317850e-04	9	true
28            	smoothSolver	9.537360e-02	8.990590e-03	6	1.554920e-01	1.513200e-02	6	1.270860e-01	1.240180e-02	6	false	smoothSolver	3.030280e-02	1.448430e-03	3	true	smoothSolver	3.842760e-03	1.845880e-04	3	true	GAMG	7.216880e-02	6.037220e-04	9	true
29            	smoothSolver	9.421160e-02	8.433320e-03	6	1.465370e-01	1.441520e-02	6	1.260140e-01	1.202060e-02	6	false	smoothSolver	2.852710e-02	1.411550e-03	3	true	smoothSolver	3.387620e-03	1.689650e-04	3	true	GAMG	7.246650e-02	6.083950e-04	9	true
30            	smoothSolver	9.199880e-02	7.896360e-03	6	1.423170e-01	1.399920e-02	6	1.245550e-01	1.172260e-02	6	false	smoothSolver	2.768980e-02	1.369700e-03	3	true	smoothSolver	3.105620e-03	1.545840e-04	3	true	GAMG	7.291190e-02	5.513560e-04	9	true
31            	smoothSolver	8.809330e-02	7.336000e-03	6	1.381770e-01	1.042880e-02	7	1.224720e-01	1.159500e-02	6	false	smoothSolver	2.675580e-02	1.323010e-03	3	true	smoothSolver	2.848530e-03	1.404760e-04	3	true	GAMG	7.425310e-02	5.772960e-04	9	true
32            	smoothSolver	8.362670e-02	6.848440e-03	6	1.352650e-01	1.047060e-02	7	1.200190e-01	1.156620e-02	6	false	smoothSolver	2.566410e-02	1.306680e-03	3	true	smoothSolver	2.616680e-03	1.300650e-04	3	true	GAMG	7.621330e-02	5.314140e-04	9	true
33            	smoothSolver	7.931390e-02	6.430360e-03	6	1.312870e-01	1.061980e-02	7	1.160530e-01	1.133360e-02	6	false	smoothSolver	2.440650e-02	1.301780e-03	3	true	smoothSolver	2.372070e-03	1.223060e-04	3	true	GAMG	7.789440e-02	7.067540e-04	8	true
34            	smoothSolver	7.475480e-02	6.027320e-03	6	1.274960e-01	1.069960e-02	7	1.101190e-01	8.269130e-03	7	false	smoothSolver	2.275910e-02	1.297320e-03	3	true	smoothSolver	2.165200e-03	1.154510e-04	3	true	GAMG	7.897430e-02	6.341560e-04	8	true
35            	smoothSolver	6.970420e-02	5.647270e-03	6	1.241830e-01	1.070600e-02	7	1.035670e-01	8.011780e-03	7	false	smoothSolver	2.142090e-02	1.287740e-03	3	true	smoothSolver	1.901740e-03	1.091350e-04	3	true	GAMG	7.880670e-02	7.049220e-04	8	true
36            	smoothSolver	6.408700e-02	5.303630e-03	6	1.223640e-01	1.058260e-02	7	9.796650e-02	7.784700e-03	7	false	smoothSolver	2.011250e-02	1.272550e-03	3	true	smoothSolver	1.721410e-03	1.027640e-04	3	true	GAMG	7.809970e-02	6.587280e-04	8	true
37            	smoothSolver	5.826330e-02	4.972000e-03	6	1.200650e-01	1.036780e-02	7	9.385770e-02	7.545020e-03	7	false	smoothSolver	1.892710e-02	1.263550e-03	3	true	smoothSolver	1.564280e-03	9.741020e-05	3	true	GAMG	7.692940e-02	7.069740e-04	8	true
38            	smoothSolver	5.281150e-02	4.642740e-03	6	1.169970e-01	1.005280e-02	7	9.055720e-02	7.298260e-03	7	false	smoothSolver	1.802030e-02	1.257270e-03	3	true	smoothSolver	1.433290e-03	9.246910e-05	3	true	GAMG	7.491350e-02	6.933770e-04	8	true
39            	smoothSolver	4.799260e-02	4.330960e-03	6	1.134580e-01	9.732450e-03	7	8.728670e-02	7.012770e-03	7	false	smoothSolver	1.721150e-02	1.249630e-03	3	true	smoothSolver	1.314590e-03	8.777760e-05	3	true	GAMG	7.221860e-02	7.220750e-04	8	true
40            	smoothSolver	4.404480e-02	4.050900e-03	6	1.094790e-01	9.398390e-03	7	8.418900e-02	6.705250e-03	7	false	smoothSolver	1.655870e-02	1.239150e-03	3	true	smoothSolver	1.225280e-03	8.342410e-05	3	true	GAMG	6.963060e-02	6.890350e-04	8	true
41            	smoothSolver	4.078880e-02	3.792860e-03	6	1.038180e-01	8.913080e-03	7	8.141380e-02	6.417180e-03	7	false	smoothSolver	1.594990e-02	1.223840e-03	3	true	smoothSolver	1.142910e-03	7.911510e-05	3	true	GAMG	6.759660e-02	5.312990e-04	9	true
42            	smoothSolver	3.800710e-02	3.565380e-03	6	9.720660e-02	8.350600e-03	7	7.887740e-02	6.161530e-03	7	false	smoothSolver	1.540300e-02	1.209740e-03	3	true	smoothSolver	1.073030e-03	7.539810e-05	3	true	GAMG	6.600850e-02	6.432280e-04	8	true
43            	smoothSolver	3.543850e-02	3.367550e-03	6	9.171360e-02	7.871960e-03	7	7.653110e-02	5.940640e-03	7	false	smoothSolver	1.493770e-02	1.197240e-03	3	true	smoothSolver	1.005880e-03	7.150190e-05	3	true	GAMG	6.465900e-02	6.381740e-04	8	true
44            	smoothSolver	3.303890e-02	3.190810e-03	6	8.719660e-02	7.452600e-03	7	7.447630e-02	5.759440e-03	7	false	smoothSolver	1.455160e-02	1.185170e-03	3	true	smoothSolver	9.460720e-04	6.796730e-05	3	true	GAMG	6.342390e-02	6.132080e-04	8	true
45            	smoothSolver	3.079410e-02	3.019360e-03	6	8.363470e-02	7.074770e-03	7	7.278080e-02	5.604470e-03	7	false	smoothSolver	1.420050e-02	1.170610e-03	3	true	smoothSolver	8.914770e-04	6.457420e-05	3	true	GAMG	6.248920e-02	6.110670e-04	8	true
46            	smoothSolver	2.878710e-02	2.850380e-03	6	8.072200e-02	6.740490e-03	7	7.131680e-02	5.453770e-03	7	false	smoothSolver	1.386220e-02	1.154660e-03	3	true	smoothSolver	8.441770e-04	6.173750e-05	3	true	GAMG	6.185060e-02	5.912200e-04	8	true
47            	smoothSolver	2.710830e-02	2.696490e-03	6	7.831790e-02	6.450100e-03	7	7.010170e-02	5.307050e-03	7	false	smoothSolver	1.354040e-02	1.136080e-03	3	true	smoothSolver	7.980720e-04	5.885360e-05	3	true	GAMG	6.131320e-02	5.918410e-04	8	true
48            	smoothSolver	2.571370e-02	2.554920e-03	6	7.611650e-02	6.198060e-03	7	6.897420e-02	5.174380e-03	7	false	smoothSolver	1.322290e-02	1.115650e-03	3	true	smoothSolver	7.577100e-04	5.616790e-05	3	true	GAMG	6.077580e-02	5.818600e-04	8	true
49            	smoothSolver	2.453600e-02	2.427440e-03	6	7.402300e-02	5.972600e-03	7	6.785120e-02	6.764120e-03	6	false	smoothSolver	1.291540e-02	1.094150e-03	3	true	smoothSolver	7.159780e-04	5.346270e-05	3	true	GAMG	6.004250e-02	5.765650e-04	8	true
50            	smoothSolver	2.348100e-02	2.312650e-03	6	7.193880e-02	5.744940e-03	7	6.721540e-02	5.035060e-03	7	false	smoothSolver	1.261360e-02	1.072070e-03	3	true	smoothSolver	6.826690e-04	5.123570e-05	3	true	GAMG	5.969720e-02	5.731270e-04	8	true
51            	smoothSolver	2.252870e-02	2.215810e-03	6	7.041590e-02	5.590600e-03	7	6.596190e-02	6.548160e-03	6	false	smoothSolver	1.230160e-02	1.049060e-03	3	true	smoothSolver	6.532200e-04	4.909130e-05	3	true	GAMG	5.886590e-02	4.609060e-04	9	true
52            	smoothSolver	2.157010e-02	2.120490e-03	6	6.882710e-02	5.438010e-03	7	6.520850e-02	6.507000e-03	6	false	smoothSolver	1.200220e-02	1.024940e-03	3	true	smoothSolver	6.286730e-04	4.728780e-05	3	true	GAMG	5.811850e-02	4.705340e-04	9	true
53            	smoothSolver	2.060760e-02	2.033520e-03	6	6.738630e-02	5.327300e-03	7	6.419130e-02	4.881370e-03	7	false	smoothSolver	1.167970e-02	9.991480e-04	3	true	smoothSolver	6.088650e-04	4.564080e-05	3	true	GAMG	5.742060e-02	4.910640e-04	9	true
54            	smoothSolver	1.964160e-02	1.962540e-03	6	6.617570e-02	5.277730e-03	7	6.248100e-02	4.841260e-03	7	false	smoothSolver	1.136140e-02	9.732770e-04	3	true	smoothSolver	5.887910e-04	4.396460e-05	3	true	GAMG	5.623870e-02	5.001240e-04	9	true
55            	smoothSolver	1.868790e-02	1.434020e-03	7	6.477740e-02	5.238460e-03	7	6.076650e-02	4.846720e-03	7	false	smoothSolver	1.103450e-02	9.482980e-04	3	true	smoothSolver	5.691760e-04	4.250580e-05	3	true	GAMG	5.484950e-02	4.935080e-04	9	true
56            	smoothSolver	1.768750e-02	1.397150e-03	7	6.328220e-02	5.226040e-03	7	5.903690e-02	4.894740e-03	7	false	smoothSolver	1.070270e-02	9.243610e-04	3	true	smoothSolver	5.471980e-04	4.113400e-05	3	true	GAMG	5.351450e-02	4.690080e-04	9	true
57            	smoothSolver	1.678030e-02	1.376070e-03	7	6.152060e-02	5.206570e-03	7	5.706150e-02	4.948500e-03	7	false	smoothSolver	1.038050e-02	9.031440e-04	3	true	smoothSolver	5.253730e-04	3.989590e-05	3	true	GAMG	5.202850e-02	4.326680e-04	9	true
58            	smoothSolver	1.594210e-02	1.366900e-03	7	5.964490e-02	5.200750e-03	7	5.504300e-02	5.004150e-03	7	false	smoothSolver	1.007920e-02	8.854710e-04	3	true	smoothSolver	5.034890e-04	3.862800e-05	3	true	GAMG	5.045040e-02	4.943980e-04	8	true
59            	smoothSolver	1.521460e-02	1.363040e-03	7	5.768390e-02	5.190060e-03	7	5.320330e-02	5.041300e-03	7	false	smoothSolver	9.802650e-03	8.709430e-04	3	true	smoothSolver	4.817390e-04	3.739920e-05	3	true	GAMG	4.872890e-02	4.370250e-04	8	true
60            	smoothSolver	1.461020e-02	1.356970e-03	7	5.586000e-02	5.163720e-03	7	5.162900e-02	5.074240e-03	7	false	smoothSolver	9.558920e-03	8.578250e-04	3	true	smoothSolver	4.616340e-04	3.617160e-05	3	true	GAMG	4.700740e-02	3.817310e-04	8	true
61            	smoothSolver	1.407640e-02	1.346210e-03	7	5.420530e-02	5.109010e-03	7	5.047940e-02	3.947170e-03	8	false	smoothSolver	9.348710e-03	8.455750e-04	3	true	smoothSolver	4.429150e-04	3.499640e-05	3	true	GAMG	4.551780e-02	3.391240e-04	8	true
62            	smoothSolver	1.364090e-02	1.332490e-03	7	5.283480e-02	5.052880e-03	7	4.930210e-02	3.961380e-03	8	false	smoothSolver	9.160330e-03	8.337560e-04	3	true	smoothSolver	4.250560e-04	3.382940e-05	3	true	GAMG	4.398760e-02	4.194310e-04	7	true
63            	smoothSolver	1.322270e-02	1.315380e-03	7	5.144160e-02	4.985480e-03	7	4.841130e-02	3.988320e-03	8	false	smoothSolver	8.972360e-03	8.217870e-04	3	true	smoothSolver	4.076790e-04	3.273050e-05	3	true	GAMG	4.269690e-02	3.941240e-04	7	true
64            	smoothSolver	1.277640e-02	9.938130e-04	8	5.002420e-02	4.909050e-03	7	4.764950e-02	4.016190e-03	8	false	smoothSolver	8.781510e-03	8.103580e-04	3	true	smoothSolver	3.929040e-04	3.169300e-05	3	true	GAMG	4.150860e-02	3.721160e-04	7	true
65            	smoothSolver	1.230010e-02	9.752650e-04	8	4.865010e-02	4.833560e-03	7	4.683230e-02	4.035460e-03	8	false	smoothSolver	8.577070e-03	7.982710e-04	3	true	smoothSolver	3.749850e-04	3.068480e-05	3	true	GAMG	4.022960e-02	3.477100e-04	7	true
66            	smoothSolver	1.184610e-02	9.543660e-04	8	4.712780e-02	3.595900e-03	8	4.576190e-02	4.008590e-03	8	false	smoothSolver	8.362920e-03	7.833020e-04	3	true	smoothSolver	3.584190e-04	2.961960e-05	3	true	GAMG	3.898130e-02	3.095580e-04	7	true
67            	smoothSolver	1.142200e-02	9.279420e-04	8	4.534300e-02	3.484770e-03	8	4.455260e-02	3.943520e-03	8	false	smoothSolver	8.150040e-03	7.658790e-04	3	true	smoothSolver	3.434340e-04	2.845970e-05	3	true	GAMG	3.748630e-02	2.792340e-04	7	true
68            	smoothSolver	1.099350e-02	8.954230e-04	8	4.372010e-02	3.399260e-03	8	4.310810e-02	3.829130e-03	8	false	smoothSolver	7.925080e-03	7.472900e-04	3	true	smoothSolver	3.280080e-04	2.728560e-05	3	true	GAMG	3.601380e-02	2.537070e-04	7	true
69            	smoothSolver	1.055410e-02	8.584220e-04	8	4.228240e-02	3.324160e-03	8	4.135610e-02	3.686100e-03	8	false	smoothSolver	7.702970e-03	7.280870e-04	3	true	smoothSolver	3.136850e-04	2.616220e-05	3	true	GAMG	3.459930e-02	2.459800e-04	7	true
70            	smoothSolver	1.011690e-02	8.185600e-04	8	4.080980e-02	3.240340e-03	8	3.937950e-02	3.518240e-03	8	false	smoothSolver	7.481680e-03	7.094460e-04	3	true	smoothSolver	2.999900e-04	2.509580e-05	3	true	GAMG	3.321180e-02	2.314570e-04	7	true
71            	smoothSolver	9.659390e-03	7.782460e-04	8	3.919020e-02	3.135670e-03	8	3.730020e-02	3.335460e-03	8	false	smoothSolver	7.266610e-03	6.926140e-04	3	true	smoothSolver	2.865380e-04	2.415810e-05	3	true	GAMG	3.186310e-02	2.302830e-04	7	true
72            	smoothSolver	9.197470e-03	7.408310e-04	8	3.755020e-02	3.015150e-03	8	3.523660e-02	3.139270e-03	8	false	smoothSolver	7.060290e-03	6.771250e-04	3	true	smoothSolver	2.749230e-04	2.326790e-05	3	true	GAMG	3.055900e-02	2.217510e-04	7	true
73            	smoothSolver	8.736340e-03	7.052050e-04	8	3.595060e-02	2.891090e-03	8	3.335410e-02	2.933240e-03	8	false	smoothSolver	6.859550e-03	6.626090e-04	3	true	smoothSolver	2.629490e-04	2.237240e-05	3	true	GAMG	2.941220e-02	2.271500e-04	7	true
74            	smoothSolver	8.303570e-03	6.708810e-04	8	3.453850e-02	2.775060e-03	8	3.169220e-02	2.729920e-03	8	false	smoothSolver	6.660420e-03	6.474800e-04	3	true	smoothSolver	2.515670e-04	2.143270e-05	3	true	GAMG	2.830470e-02	2.073390e-04	7	true
75            	smoothSolver	7.892000e-03	6.386780e-04	8	3.329220e-02	2.680360e-03	8	3.027170e-02	2.549380e-03	8	false	smoothSolver	6.463330e-03	6.311260e-04	3	true	smoothSolver	2.394350e-04	2.045970e-05	3	true	GAMG	2.738470e-02	1.973840e-04	7	true
76            	smoothSolver	7.504480e-03	6.066010e-04	8	3.232520e-02	2.605330e-03	8	2.898670e-02	2.411520e-03	8	false	smoothSolver	6.281760e-03	6.137960e-04	3	true	smoothSolver	2.293740e-04	1.949310e-05	3	true	GAMG	2.655040e-02	1.816380e-04	7	true
77            	smoothSolver	7.152810e-03	5.753140e-04	8	3.138880e-02	2.534880e-03	8	2.775720e-02	2.306170e-03	8	false	smoothSolver	6.117770e-03	5.974170e-04	3	true	smoothSolver	2.214310e-04	1.862720e-05	3	true	GAMG	2.583180e-02	2.525310e-04	6	true
78            	smoothSolver	6.820170e-03	5.438330e-04	8	3.056240e-02	2.451690e-03	8	2.662080e-02	2.223140e-03	8	false	smoothSolver	5.970480e-03	5.835590e-04	3	true	smoothSolver	2.143130e-04	1.793470e-05	3	true	GAMG	2.496990e-02	2.485280e-04	6	true
79            	smoothSolver	6.504390e-03	5.140360e-04	8	2.964950e-02	2.356850e-03	8	2.547160e-02	2.140550e-03	8	false	smoothSolver	5.836030e-03	5.725310e-04	3	true	smoothSolver	2.092040e-04	1.743670e-05	3	true	GAMG	2.421950e-02	1.802940e-04	7	true
80            	smoothSolver	6.198160e-03	4.854540e-04	8	2.892910e-02	2.250940e-03	8	2.427820e-02	2.039090e-03	8	false	smoothSolver	5.696100e-03	5.623090e-04	3	true	smoothSolver	2.041600e-04	1.694740e-05	3	true	GAMG	2.337580e-02	1.796090e-04	7	true
81            	smoothSolver	5.895830e-03	4.576010e-04	8	2.813960e-02	2.150820e-03	8	2.312830e-02	1.923420e-03	8	false	smoothSolver	5.553550e-03	5.515070e-04	3	true	smoothSolver	1.946140e-04	1.645410e-05	3	true	GAMG	2.251220e-02	1.807130e-04	7	true
82            	smoothSolver	5.612100e-03	4.296240e-04	8	2.754180e-02	2.749290e-03	7	2.211280e-02	1.806340e-03	8	false	smoothSolver	5.423480e-03	5.391780e-04	3	true	smoothSolver	1.882810e-04	1.584780e-05	3	true	GAMG	2.173060e-02	1.735640e-04	7	true
83            	smoothSolver	5.336850e-03	5.331230e-04	7	2.720440e-02	2.712700e-03	7	2.122450e-02	1.715680e-03	8	false	smoothSolver	5.305890e-03	5.266390e-04	3	true	smoothSolver	1.810950e-04	1.517110e-05	3	true	GAMG	2.098850e-02	1.739410e-04	7	true
84            	smoothSolver	5.080570e-03	5.040250e-04	7	2.656550e-02	2.650320e-03	7	2.045370e-02	1.657410e-03	8	false	smoothSolver	5.203410e-03	5.155800e-04	3	true	smoothSolver	1.738800e-04	1.462940e-05	3	true	GAMG	2.033530e-02	1.709140e-04	7	true
85            	smoothSolver	4.814590e-03	4.749220e-04	7	2.578280e-02	2.564290e-03	7	1.972850e-02	1.614850e-03	8	false	smoothSolver	5.115910e-03	5.069620e-04	3	true	smoothSolver	1.676750e-04	1.420820e-05	3	true	GAMG	1.972010e-02	1.752950e-04	7	true
86            	smoothSolver	4.537690e-03	4.464780e-04	7	2.487610e-02	2.458330e-03	7	1.890820e-02	1.561240e-03	8	false	smoothSolver	5.034100e-03	4.997920e-04	3	true	smoothSolver	1.625940e-04	1.387520e-05	3	true	GAMG	1.908260e-02	1.791050e-04	7	true
87            	smoothSolver	4.281080e-03	4.234290e-04	7	2.396580e-02	2.353310e-03	7	1.799610e-02	1.489430e-03	8	false	smoothSolver	4.954050e-03	4.934600e-04	3	true	smoothSolver	1.573370e-04	1.351730e-05	3	true	GAMG	1.856610e-02	1.754810e-04	7	true
88            	smoothSolver	4.064530e-03	4.058360e-04	7	2.319630e-02	2.270470e-03	7	1.713010e-02	1.408380e-03	8	false	smoothSolver	4.869120e-03	2.300510e-04	4	true	smoothSolver	1.518890e-04	1.312680e-05	3	true	GAMG	1.804490e-02	1.697360e-04	7	true
89            	smoothSolver	3.884250e-03	2.963380e-04	8	2.253810e-02	2.217940e-03	7	1.645720e-02	1.341720e-03	8	false	smoothSolver	4.772880e-03	2.276930e-04	4	true	smoothSolver	1.466450e-04	1.269610e-05	3	true	GAMG	1.753890e-02	1.650760e-04	7	true
90            	smoothSolver	3.717280e-03	2.859120e-04	8	2.203800e-02	2.199060e-03	7	1.607080e-02	1.311310e-03	8	false	smoothSolver	4.680260e-03	2.239630e-04	4	true	smoothSolver	1.417880e-04	1.222520e-05	3	true	GAMG	1.694250e-02	1.568260e-04	7	true
91            	smoothSolver	3.573470e-03	2.789120e-04	8	2.145700e-02	1.660830e-03	8	1.581980e-02	1.328820e-03	8	false	smoothSolver	4.600270e-03	2.195210e-04	4	true	smoothSolver	1.372450e-04	1.175700e-05	3	true	GAMG	1.628520e-02	1.492610e-04	7	true
92            	smoothSolver	3.447850e-03	2.757830e-04	8	2.061060e-02	1.627590e-03	8	1.565530e-02	1.367550e-03	8	false	smoothSolver	4.537450e-03	2.157390e-04	4	true	smoothSolver	1.340140e-04	1.144000e-05	3	true	GAMG	1.555930e-02	1.411200e-04	7	true
93            	smoothSolver	3.323460e-03	2.729330e-04	8	1.972080e-02	1.587510e-03	8	1.542620e-02	1.394810e-03	8	false	smoothSolver	4.481410e-03	2.138840e-04	4	true	smoothSolver	1.315800e-04	1.131960e-05	3	true	GAMG	1.487640e-02	1.392400e-04	7	true
94            	smoothSolver	3.203060e-03	2.702290e-04	8	1.881860e-02	1.535540e-03	8	1.504400e-02	1.395600e-03	8	false	smoothSolver	4.419220e-03	2.128570e-04	4	true	smoothSolver	1.296940e-04	1.128860e-05	3	true	GAMG	1.418680e-02	1.383580e-04	7	true
95            	smoothSolver	3.103800e-03	2.681060e-04	8	1.799070e-02	1.476500e-03	8	1.451520e-02	1.361680e-03	8	false	smoothSolver	4.343330e-03	2.114170e-04	4	true	smoothSolver	1.277860e-04	1.125410e-05	3	true	GAMG	1.360540e-02	1.303460e-04	7	true
96            	smoothSolver	3.035070e-03	2.653410e-04	8	1.740110e-02	1.439870e-03	8	1.394050e-02	1.305760e-03	8	false	smoothSolver	4.255040e-03	2.088450e-04	4	true	smoothSolver	1.255750e-04	1.112470e-05	3	true	GAMG	1.303620e-02	1.242760e-04	7	true
97            	smoothSolver	2.988210e-03	2.621190e-04	8	1.709820e-02	1.443720e-03	8	1.352330e-02	1.254910e-03	8	false	smoothSolver	4.175410e-03	2.048450e-04	4	true	smoothSolver	1.231100e-04	1.081490e-05	3	true	GAMG	1.260040e-02	1.226890e-04	7	true
98            	smoothSolver	2.951700e-03	2.600540e-04	8	1.693070e-02	1.467240e-03	8	1.327900e-02	1.239570e-03	8	false	smoothSolver	4.110540e-03	2.002800e-04	4	true	smoothSolver	1.206380e-04	1.042920e-05	3	true	GAMG	1.223040e-02	1.220140e-04	7	true
99            	smoothSolver	2.909460e-03	2.578090e-04	8	1.676030e-02	1.486460e-03	8	1.313330e-02	1.254810e-03	8	false	smoothSolver	4.052210e-03	1.960950e-04	4	true	smoothSolver	1.179730e-04	1.012270e-05	3	true	GAMG	1.193710e-02	8.808950e-05	8	true
100           	smoothSolver	2.847640e-03	2.537620e-04	8	1.642140e-02	1.480920e-03	8	1.293800e-02	1.273120e-03	8	false	smoothSolver	3.991830e-03	1.931210e-04	4	true	smoothSolver	1.153570e-04	9.939890e-06	3	true	GAMG	1.164420e-02	9.239120e-05	8	true
101           	smoothSolver	2.768030e-03	2.496630e-04	8	1.586440e-02	1.450260e-03	8	1.257850e-02	9.867580e-04	9	false	smoothSolver	3.925660e-03	1.914090e-04	4	true	smoothSolver	1.130500e-04	9.838640e-06	3	true	GAMG	1.143260e-02	9.654920e-05	8	true
102           	smoothSolver	2.697960e-03	2.489830e-04	8	1.531560e-02	1.407070e-03	8	1.202560e-02	9.541160e-04	9	false	smoothSolver	3.848650e-03	1.899770e-04	4	true	smoothSolver	1.104780e-04	9.733850e-06	3	true	GAMG	1.120070e-02	9.500260e-05	8	true
103           	smoothSolver	2.646690e-03	2.494330e-04	8	1.498460e-02	1.387170e-03	8	1.161740e-02	9.181000e-04	9	false	smoothSolver	3.762860e-03	1.880320e-04	4	true	smoothSolver	1.074960e-04	9.539400e-06	3	true	GAMG	1.090860e-02	9.303710e-05	8	true
104           	smoothSolver	2.610570e-03	2.488990e-04	8	1.483850e-02	1.390270e-03	8	1.145830e-02	8.959490e-04	9	false	smoothSolver	3.676910e-03	1.851070e-04	4	true	smoothSolver	1.042750e-04	9.243970e-06	3	true	GAMG	1.069770e-02	9.049990e-05	8	true
105           	smoothSolver	2.588240e-03	2.476970e-04	8	1.472850e-02	1.398340e-03	8	1.149410e-02	9.011510e-04	9	false	smoothSolver	3.605020e-03	1.812300e-04	4	true	smoothSolver	1.011810e-04	8.889670e-06	3	true	GAMG	1.042410e-02	8.715490e-05	8	true
106           	smoothSolver	2.566770e-03	2.480320e-04	8	1.455360e-02	1.405760e-03	8	1.165040e-02	9.384690e-04	9	false	smoothSolver	3.553010e-03	1.771810e-04	4	true	smoothSolver	9.855510e-05	8.578100e-06	3	true	GAMG	1.007090e-02	8.178580e-05	8	true
107           	smoothSolver	2.538830e-03	2.493820e-04	8	1.424340e-02	1.401640e-03	8	1.177910e-02	9.782720e-04	9	false	smoothSolver	3.518210e-03	1.750510e-04	4	true	smoothSolver	9.715010e-05	8.450700e-06	3	true	GAMG	9.730460e-03	7.599750e-05	8	true
108           	smoothSolver	2.500900e-03	1.927520e-04	9	1.380100e-02	1.369590e-03	8	1.174830e-02	1.000410e-03	9	false	smoothSolver	3.488320e-03	1.751830e-04	4	true	smoothSolver	9.659270e-05	8.502730e-06	3	true	GAMG	9.446100e-03	7.406450e-05	8	true
109           	smoothSolver	2.445930e-03	1.917860e-04	9	1.339150e-02	1.324710e-03	8	1.158390e-02	9.988350e-04	9	false	smoothSolver	3.445380e-03	1.753250e-04	4	true	smoothSolver	9.604210e-05	8.596580e-06	3	true	GAMG	9.157100e-03	6.937870e-05	8	true
110           	smoothSolver	2.413210e-03	1.908740e-04	9	1.319510e-02	1.296010e-03	8	1.132480e-02	9.737240e-04	9	false	smoothSolver	3.391590e-03	1.743660e-04	4	true	smoothSolver	9.535390e-05	8.654650e-06	3	true	GAMG	8.935310e-03	6.453200e-05	8	true
111           	smoothSolver	2.405860e-03	1.896060e-04	9	1.329150e-02	1.315710e-03	8	1.117250e-02	9.456100e-04	9	false	smoothSolver	3.334910e-03	1.714100e-04	4	true	smoothSolver	9.451550e-05	8.552190e-06	3	true	GAMG	8.704300e-03	6.176320e-05	8	true
112           	smoothSolver	2.411480e-03	1.889320e-04	9	1.353730e-02	1.047580e-03	9	1.119880e-02	9.349920e-04	9	false	smoothSolver	3.295000e-03	1.674120e-04	4	true	smoothSolver	9.326940e-05	8.253030e-06	3	true	GAMG	8.590620e-03	8.551080e-05	7	true
113           	smoothSolver	2.416710e-03	1.891650e-04	9	1.365100e-02	1.070730e-03	9	1.133460e-02	9.533560e-04	9	false	smoothSolver	3.264630e-03	1.633140e-04	4	true	smoothSolver	9.190550e-05	7.966910e-06	3	true	GAMG	8.477080e-03	7.999760e-05	7	true
114           	smoothSolver	2.401150e-03	1.884510e-04	9	1.358580e-02	1.076120e-03	9	1.142610e-02	9.801990e-04	9	false	smoothSolver	3.231610e-03	1.600240e-04	4	true	smoothSolver	9.057450e-05	7.811460e-06	3	true	GAMG	8.317590e-03	7.709840e-05	7	true
115           	smoothSolver	2.362220e-03	1.866660e-04	9	1.328740e-02	1.060380e-03	9	1.131330e-02	9.925300e-04	9	false	smoothSolver	3.185150e-03	1.580640e-04	4	true	smoothSolver	8.970280e-05	7.800500e-06	3	true	GAMG	8.200840e-03	7.814710e-05	7	true
116           	smoothSolver	2.318040e-03	1.857250e-04	9	1.293340e-02	1.026830e-03	9	1.104800e-02	9.784570e-04	9	false	smoothSolver	3.125020e-03	1.564550e-04	4	true	smoothSolver	8.869840e-05	7.830910e-06	3	true	GAMG	8.194110e-03	7.717370e-05	7	true
117           	smoothSolver	2.296640e-03	1.861260e-04	9	1.275260e-02	1.005640e-03	9	1.083210e-02	9.481580e-04	9	false	smoothSolver	3.051680e-03	1.545160e-04	4	true	smoothSolver	8.731770e-05	7.805350e-06	3	true	GAMG	8.149580e-03	7.615330e-05	7	true
118           	smoothSolver	2.293560e-03	1.860650e-04	9	1.285510e-02	1.014670e-03	9	1.076090e-02	9.219420e-04	9	false	smoothSolver	2.972130e-03	1.516870e-04	4	true	smoothSolver	8.564680e-05	7.673320e-06	3	true	GAMG	8.107100e-03	7.575100e-05	7	true
119           	smoothSolver	2.305350e-03	1.855160e-04	9	1.309100e-02	1.037090e-03	9	1.092630e-02	9.182970e-04	9	false	smoothSolver	2.898880e-03	1.478430e-04	4	true	smoothSolver	8.390430e-05	7.458710e-06	3	true	GAMG	8.110750e-03	7.329820e-05	7	true