# Solver information
# Time        	U_solver      	Ux_initial    	Ux_final      	Ux_iters      	Uy_initial    	Uy_final      	Uy_iters      	Uz_initial    	Uz_final      	Uz_iters      	U_converged   	k_solver      	k_initial     	k_final       	k_iters       	k_converged   	omega_solver  	omega_initial 	omega_final   	omega_iters   	omega_converged	p_solver      	p_initial     	p_final       	p_iters       	p_converged   
1             	smoothSolver	1.000000e+00	8.052400e-02	8	1.000000e+00	5.991200e-02	2	9.999990e-01	8.415270e-02	2	false	smoothSolver	1.000000e+00	4.062920e-02	3	true	smoothSolver	2.513150e-02	1.950930e-03	2	true	GAMG	1.000000e+00	3.502240e-03	6	true
2             	smoothSolver	4.977420e-01	4.368550e-02	4	5.826020e-01	5.353360e-02	4	4.543220e-01	4.121170e-02	5	false	smoothSolver	4.622770e-01	4.480300e-02	1	true	smoothSolver	2.574100e-03	1.413840e-04	2	true	GAMG	4.577550e-03	3.285730e-05	5	true
3             	smoothSolver	2.521120e-01	2.323950e-02	5	4.078350e-01	3.941150e-02	4	2.874860e-01	2.080100e-02	6	false	smoothSolver	2.090590e-01	3.588340e-03	2	true	smoothSolver	2.284510e-03	1.143500e-04	2	true	GAMG	2.712920e-03	2.544980e-05	3	true
4             	smoothSolver	1.596850e-01	1.542240e-02	5	2.488780e-01	1.817360e-02	5	1.720460e-01	1.400940e-02	6	false	smoothSolver	1.292040e-01	2.330520e-03	2	true	smoothSolver	2.083390e-03	9.728760e-05	2	true	GAMG	2.604890e-03	2.341740e-05	3	true
5             	smoothSolver	1.142170e-01	1.117380e-02	5	1.599070e-01	1.263150e-02	5	1.227980e-01	1.061260e-02	6	false	smoothSolver	9.142140e-02	1.726090e-03	2	true	smoothSolver	1.924570e-03	8.526810e-05	2	true	GAMG	2.549850e-03	1.883380e-05	3	true
6             	smoothSolver	8.760230e-02	8.615170e-03	5	1.176930e-01	9.793110e-03	5	9.957960e-02	8.797460e-03	6	false	smoothSolver	6.957460e-02	1.371280e-03	2	true	smoothSolver	1.792990e-03	7.617190e-05	2	true	GAMG	2.553320e-03	1.441390e-05	3	true
7             	smoothSolver	7.036720e-02	6.917480e-03	5	9.838180e-02	8.079390e-03	5	8.746790e-02	7.653530e-03	6	false	smoothSolver	5.537680e-02	1.136870e-03	2	true	smoothSolver	1.682100e-03	6.895750e-05	2	true	GAMG	2.541200e-03	1.349060e-05	3	true
8             	smoothSolver	5.834240e-02	5.708970e-03	5	8.504780e-02	6.865690e-03	5	7.840300e-02	6.801170e-03	6	false	smoothSolver	4.547480e-02	9.695230e-04	2	true	smoothSolver	1.587720e-03	6.303420e-05	2	true	GAMG	2.416310e-03	1.305160e-05	3	true
9             	smoothSolver	4.955290e-02	4.805470e-03	5	7.332480e-02	5.889840e-03	5	7.126310e-02	6.109840e-03	6	false	smoothSolver	3.849240e-02	8.464470e-04	2	true	smoothSolver	1.510790e-03	5.812000e-05	2	true	GAMG	2.246660e-03	1.222470e-05	3	true
10            	smoothSolver	4.279770e-02	4.103620e-03	5	6.361770e-02	5.057630e-03	5	6.594690e-02	5.551610e-03	6	false	smoothSolver	3.333130e-02	7.529540e-04	2	true	smoothSolver	1.461950e-03	5.425880e-05	2	true	GAMG	2.076470e-03	1.116530e-05	3	true
11            	smoothSolver	3.737190e-02	3.541560e-03	5	5.584200e-02	4.361020e-03	5	6.181470e-02	5.106470e-03	6	false	smoothSolver	2.925360e-02	6.787240e-04	2	true	smoothSolver	1.450530e-03	5.150900e-05	2	true	GAMG	1.932300e-03	1.014720e-05	3	true
12            	smoothSolver	3.290600e-02	3.081570e-03	5	4.956930e-02	3.793100e-03	5	5.860440e-02	4.754930e-03	6	false	smoothSolver	2.592980e-02	6.176520e-04	2	true	smoothSolver	1.466060e-03	4.954520e-05	2	true	GAMG	1.801960e-03	9.355880e-06	3	true
13            	smoothSolver	2.918140e-02	2.699180e-03	5	4.447900e-02	3.325870e-03	5	5.596980e-02	4.464210e-03	6	false	smoothSolver	2.315320e-02	5.662630e-04	2	true	smoothSolver	1.485350e-03	4.783660e-05	2	true	GAMG	1.693580e-03	8.878620e-06	3	true
14            	smoothSolver	2.603610e-02	2.377060e-03	5	4.023740e-02	2.937720e-03	5	5.371430e-02	4.216440e-03	6	false	smoothSolver	2.080760e-02	5.225590e-04	2	true	smoothSolver	1.491860e-03	4.603160e-05	2	true	GAMG	1.596500e-03	8.632450e-06	3	true
15            	smoothSolver	2.334460e-02	2.101780e-03	5	3.673950e-02	2.615320e-03	5	5.165540e-02	3.992140e-03	6	false	smoothSolver	1.882140e-02	4.850660e-04	2	true	smoothSolver	1.480710e-03	4.403930e-05	2	true	GAMG	1.508140e-03	8.534630e-06	3	true
16            	smoothSolver	2.100830e-02	1.863430e-03	5	3.367700e-02	2.338650e-03	5	4.961480e-02	3.777120e-03	6	false	smoothSolver	1.711740e-02	4.526170e-04	2	true	smoothSolver	1.454610e-03	4.191100e-05	2	true	GAMG	1.432230e-03	8.525730e-06	3	true
17            	smoothSolver	1.895000e-02	1.654740e-03	5	3.093180e-02	2.101320e-03	5	4.751350e-02	3.562980e-03	6	false	smoothSolver	1.564370e-02	4.244770e-04	2	true	smoothSolver	1.418280e-03	3.973250e-05	2	true	GAMG	1.364230e-03	8.426730e-06	3	true
18            	smoothSolver	1.711780e-02	1.470500e-03	5	2.841460e-02	1.892830e-03	5	4.527330e-02	3.346740e-03	6	false	smoothSolver	1.436440e-02	4.000330e-04	2	true	smoothSolver	1.375980e-03	3.757150e-05	2	true	GAMG	1.304560e-03	8.219810e-06	3	true
19            	smoothSolver	1.547660e-02	1.306920e-03	5	2.607980e-02	1.706210e-03	5	4.288940e-02	3.126950e-03	6	false	smoothSolver	1.324640e-02	3.786740e-04	2	true	smoothSolver	1.330770e-03	3.547250e-05	2	true	GAMG	1.251200e-03	7.981990e-06	3	true
20            	smoothSolver	1.400000e-02	1.161160e-03	5	2.390740e-02	1.537610e-03	5	4.036360e-02	2.901730e-03	6	false	smoothSolver	1.226200e-02	3.598280e-04	2	true	smoothSolver	1.283600e-03	3.345950e-05	2	true	GAMG	1.202430e-03	7.703910e-06	3	true
21            	smoothSolver	1.266820e-02	1.030940e-03	5	2.191320e-02	1.384860e-03	5	3.772440e-02	2.672010e-03	6	false	smoothSolver	1.138910e-02	3.430900e-04	2	true	smoothSolver	1.235050e-03	3.154600e-05	2	true	GAMG	1.156690e-03	7.402280e-06	3	true
22            	smoothSolver	1.146500e-02	9.144800e-04	5	2.007590e-02	1.980640e-03	4	3.506260e-02	2.441670e-03	6	false	smoothSolver	1.061440e-02	3.281530e-04	2	true	smoothSolver	1.185860e-03	2.973610e-05	2	true	GAMG	1.119200e-03	7.028900e-06	3	true
23            	smoothSolver	1.037770e-02	8.102780e-04	5	1.893900e-02	1.859790e-03	4	3.237710e-02	2.213230e-03	6	false	smoothSolver	9.924430e-03	3.147660e-04	2	true	smoothSolver	1.136390e-03	2.802790e-05	2	true	GAMG	1.069610e-03	6.685430e-06	3	true
24            	smoothSolver	9.394720e-03	7.170580e-04	5	1.749350e-02	1.696930e-03	4	2.977780e-02	2.952670e-03	5	false	smoothSolver	9.308340e-03	3.027400e-04	2	true	smoothSolver	1.087030e-03	2.641580e-05	2	true	GAMG	1.027550e-03	6.054620e-06	3	true
25            	smoothSolver	8.506040e-03	6.337660e-04	5	1.606650e-02	1.535210e-03	4	2.780200e-02	2.711600e-03	5	false	smoothSolver	8.755470e-03	2.918820e-04	2	true	smoothSolver	1.038280e-03	2.489620e-05	2	true	GAMG	9.783000e-04	5.923340e-06	3	true
26            	smoothSolver	7.701940e-03	5.594350e-04	5	1.473680e-02	1.384340e-03	4	2.542770e-02	2.426010e-03	5	false	smoothSolver	8.256090e-03	2.820220e-04	2	true	smoothSolver	9.906610e-04	2.346750e-05	2	true	GAMG	9.333570e-04	5.642480e-06	3	true
27            	smoothSolver	6.974320e-03	4.932320e-04	5	1.350990e-02	1.245810e-03	4	2.305920e-02	2.142610e-03	5	false	smoothSolver	7.802840e-03	2.729970e-04	2	true	smoothSolver	9.445150e-04	2.212640e-05	2	true	GAMG	8.900390e-04	5.258460e-06	3	true
28            	smoothSolver	6.316190e-03	4.343960e-04	5	1.237240e-02	1.118920e-03	4	2.080150e-02	1.876210e-03	5	false	smoothSolver	7.389500e-03	2.646710e-04	2	true	smoothSolver	9.000220e-04	2.086590e-05	2	true	GAMG	8.466510e-04	4.896520e-06	3	true
29            	smoothSolver	5.721620e-03	3.822110e-04	5	1.132280e-02	1.003250e-03	4	1.868060e-02	1.632070e-03	5	false	smoothSolver	7.011130e-03	2.569320e-04	2	true	smoothSolver	8.572540e-04	1.967930e-05	2	true	GAMG	8.031510e-04	4.546530e-06	3	true
30            	smoothSolver	5.184830e-03	3.360230e-04	5	1.036120e-02	8.978570e-04	4	1.670700e-02	1.411960e-03	5	false	smoothSolver	6.664050e-03	2.497100e-04	2	true	smoothSolver	8.162400e-04	1.855990e-05	2	true	GAMG	7.604420e-04	4.198890e-06	3	true
31            	smoothSolver	4.700690e-03	4.583770e-04	4	9.478630e-03	8.020570e-04	4	1.488930e-02	1.216020e-03	5	false	smoothSolver	6.346100e-03	2.429950e-04	2	true	smoothSolver	7.767390e-04	1.749880e-05	2	true	GAMG	7.124620e-04	3.081270e-06	3	true
32            	smoothSolver	4.310820e-03	4.135710e-04	4	8.465790e-03	6.962660e-04	4	1.308800e-02	1.037260e-03	5	false	smoothSolver	6.053640e-03	2.366420e-04	2	true	smoothSolver	7.390300e-04	1.649600e-05	2	true	GAMG	6.710770e-04	3.199460e-06	3	true
33            	smoothSolver	3.936430e-03	3.689200e-04	4	7.723580e-03	6.171640e-04	4	1.162110e-02	8.876820e-04	5	false	smoothSolver	5.784720e-03	2.306090e-04	2	true	smoothSolver	7.030660e-04	1.554700e-05	2	true	GAMG	6.349460e-04	3.215370e-06	3	true
34            	smoothSolver	3.592940e-03	3.280660e-04	4	7.094520e-03	5.506430e-04	4	1.034720e-02	7.607120e-04	5	false	smoothSolver	5.537450e-03	2.248580e-04	2	true	smoothSolver	6.687670e-04	1.464780e-05	2	true	GAMG	6.009680e-04	2.992470e-06	3	true
35            	smoothSolver	3.280900e-03	2.915080e-04	4	6.519260e-03	4.920340e-04	4	9.215060e-03	6.526410e-04	5	false	smoothSolver	5.310350e-03	2.193560e-04	2	true	smoothSolver	6.360520e-04	1.379560e-05	2	true	GAMG	5.691400e-04	2.749290e-06	3	true
36            	smoothSolver	2.998440e-03	2.589720e-04	4	5.986640e-03	4.400320e-04	4	8.216180e-03	5.612830e-04	5	false	smoothSolver	5.101480e-03	2.140990e-04	2	true	smoothSolver	6.048360e-04	1.298770e-05	2	true	GAMG	5.392160e-04	2.529640e-06	3	true
37            	smoothSolver	2.742560e-03	2.300400e-04	4	5.500730e-03	3.938440e-04	4	7.351010e-03	4.848140e-04	5	false	smoothSolver	4.909180e-03	2.090850e-04	2	true	smoothSolver	5.750360e-04	1.222210e-05	2	true	GAMG	5.111650e-04	2.325510e-06	3	true
38            	smoothSolver	2.510570e-03	2.043190e-04	4	5.058820e-03	3.528180e-04	4	6.605850e-03	4.204890e-04	5	false	smoothSolver	4.732080e-03	2.043050e-04	2	true	smoothSolver	5.465740e-04	1.149650e-05	2	true	GAMG	4.846920e-04	2.144990e-06	3	true
39            	smoothSolver	2.299990e-03	1.814480e-04	4	4.661070e-03	3.163130e-04	4	5.966730e-03	5.835850e-04	4	false	smoothSolver	4.568950e-03	1.996940e-04	2	true	smoothSolver	5.193740e-04	1.080890e-05	2	true	GAMG	4.609680e-04	2.085490e-06	3	true
40            	smoothSolver	2.108720e-03	1.611110e-04	4	4.303610e-03	2.844310e-04	4	5.558210e-03	5.302720e-04	4	false	smoothSolver	4.418430e-03	1.951810e-04	2	true	smoothSolver	4.933660e-04	1.015730e-05	2	true	GAMG	4.365990e-04	1.871280e-06	3	true
41            	smoothSolver	1.934610e-03	1.430130e-04	4	3.979270e-03	2.554740e-04	4	5.102300e-03	4.727510e-04	4	false	smoothSolver	4.279050e-03	1.907330e-04	2	true	smoothSolver	4.684820e-04	9.539800e-06	2	true	GAMG	4.139650e-04	1.742480e-06	3	true
42            	smoothSolver	1.776030e-03	1.269040e-04	4	3.681870e-03	2.294290e-04	4	4.671500e-03	4.194820e-04	4	false	smoothSolver	4.149640e-03	1.863320e-04	2	true	smoothSolver	4.446610e-04	8.954570e-06	2	true	GAMG	3.928250e-04	1.645930e-06	3	true
43            	smoothSolver	1.631460e-03	1.125650e-04	4	3.409810e-03	2.061000e-04	4	4.282590e-03	3.723020e-04	4	false	smoothSolver	4.029010e-03	1.819590e-04	2	true	smoothSolver	4.218480e-04	8.399770e-06	2	true	GAMG	3.730890e-04	1.562650e-06	3	true
44            	smoothSolver	1.499480e-03	9.980210e-05	4	3.159220e-03	1.852110e-04	4	3.932430e-03	3.308020e-04	4	false	smoothSolver	3.915780e-03	1.775950e-04	2	true	smoothSolver	3.999920e-04	7.873700e-06	2	true	GAMG	3.543250e-04	1.494660e-06	3	true
45            	smoothSolver	1.378830e-03	8.844050e-05	4	2.929860e-03	1.664770e-04	4	3.618240e-03	2.941450e-04	4	false	smoothSolver	3.808910e-03	1.732240e-04	2	true	smoothSolver	3.790490e-04	7.374670e-06	2	true	GAMG	3.365610e-04	1.439400e-06	3	true
46            	smoothSolver	1.268350e-03	7.832750e-05	4	2.719720e-03	1.496580e-04	4	3.333770e-03	2.615550e-04	4	false	smoothSolver	3.707690e-03	1.688290e-04	2	true	smoothSolver	3.589740e-04	6.901150e-06	2	true	GAMG	3.198150e-04	1.385610e-06	3	true
47            	smoothSolver	1.167080e-03	6.932780e-05	4	2.527390e-03	2.488050e-04	3	3.074680e-03	2.325230e-04	4	false	smoothSolver	3.611420e-03	1.643980e-04	2	true	smoothSolver	3.397260e-04	6.451720e-06	2	true	GAMG	3.048900e-04	1.328880e-06	3	true
48            	smoothSolver	1.074230e-03	1.069060e-04	3	2.432570e-03	2.356840e-04	3	2.848320e-03	2.071180e-04	4	false	smoothSolver	3.520360e-03	1.599430e-04	2	true	smoothSolver	3.211710e-04	6.024270e-06	2	true	GAMG	2.889300e-04	1.435330e-06	3	true
49            	smoothSolver	1.002660e-03	9.807290e-05	3	2.219260e-03	2.101580e-04	3	2.579970e-03	1.821150e-04	4	false	smoothSolver	3.432620e-03	1.554390e-04	2	true	smoothSolver	3.034140e-04	5.619070e-06	2	true	GAMG	2.732610e-04	1.227680e-06	3	true
50            	smoothSolver	9.305460e-04	8.877920e-05	3	2.060090e-03	1.897640e-04	3	2.380470e-03	1.612140e-04	4	false	smoothSolver	3.347100e-03	1.508830e-04	2	true	smoothSolver	2.864130e-04	5.234750e-06	2	true	GAMG	2.600380e-04	1.225180e-06	3	true
51            	smoothSolver	8.615560e-04	7.991250e-05	3	1.931110e-03	1.723810e-04	3	2.213140e-03	1.430170e-04	4	false	smoothSolver	3.262530e-03	1.462770e-04	2	true	smoothSolver	2.701200e-04	4.870340e-06	2	true	GAMG	2.479340e-04	1.192640e-06	3	true
52            	smoothSolver	7.966920e-04	7.171740e-05	3	1.810070e-03	1.568470e-04	3	2.058410e-03	1.269880e-04	4	false	smoothSolver	3.177510e-03	1.416260e-04	2	true	smoothSolver	2.545010e-04	4.524990e-06	2	true	GAMG	2.357980e-04	1.156970e-06	3	true
53            	smoothSolver	7.359270e-04	6.422370e-05	3	1.694070e-03	1.426800e-04	3	1.914420e-03	1.128220e-04	4	false	smoothSolver	3.091010e-03	1.369380e-04	2	true	smoothSolver	2.395240e-04	4.197980e-06	2	true	GAMG	2.235890e-04	1.121360e-06	3	true
54            	smoothSolver	6.789690e-04	5.740030e-05	3	1.583020e-03	1.296580e-04	3	1.780000e-03	1.002620e-04	4	false	smoothSolver	3.002750e-03	1.322220e-04	2	true	smoothSolver	2.251630e-04	3.888630e-06	2	true	GAMG	2.121030e-04	1.082100e-06	3	true
55            	smoothSolver	6.255690e-04	5.120230e-05	3	1.476520e-03	1.176680e-04	3	1.654180e-03	1.598060e-04	3	false	smoothSolver	2.912660e-03	1.274910e-04	2	true	smoothSolver	2.113960e-04	3.596350e-06	2	true	GAMG	2.019190e-04	1.091130e-06	3	true
56            	smoothSolver	5.755530e-04	4.559020e-05	3	1.379170e-03	1.069530e-04	3	1.583250e-03	1.497380e-04	3	false	smoothSolver	2.820810e-03	1.227550e-04	2	true	smoothSolver	1.981970e-04	3.320580e-06	2	true	GAMG	1.926660e-04	1.010540e-06	3	true
57            	smoothSolver	5.287540e-04	4.051250e-05	3	1.288210e-03	9.682950e-05	3	1.486220e-03	1.365770e-04	3	false	smoothSolver	2.727280e-03	1.180260e-04	2	true	smoothSolver	1.855490e-04	3.060770e-06	2	true	GAMG	1.843660e-04	9.542290e-07	3	true
58            	smoothSolver	4.850640e-04	3.593200e-05	3	1.202300e-03	8.741680e-05	3	1.384590e-03	1.231280e-04	3	false	smoothSolver	2.632190e-03	1.133150e-04	2	true	smoothSolver	1.734380e-04	2.816430e-06	2	true	GAMG	1.770500e-04	9.109580e-07	3	true
59            	smoothSolver	4.443210e-04	3.181600e-05	3	1.122120e-03	7.876890e-05	3	1.289760e-03	1.107540e-04	3	false	smoothSolver	2.535730e-03	1.086350e-04	2	true	smoothSolver	1.618500e-04	2.587020e-06	2	true	GAMG	1.705700e-04	8.649650e-07	3	true
60            	smoothSolver	4.063660e-04	2.812520e-05	3	1.045410e-03	7.087430e-05	3	1.201180e-03	9.941260e-05	3	false	smoothSolver	2.438130e-03	1.039980e-04	2	true	smoothSolver	1.507720e-04	2.372030e-06	2	true	GAMG	1.642260e-04	8.207060e-07	3	true
61            	smoothSolver	3.710290e-04	2.482520e-05	3	9.736250e-04	6.368900e-05	3	1.117770e-03	8.911270e-05	3	false	smoothSolver	2.339630e-03	9.941520e-05	2	true	smoothSolver	1.401950e-04	2.170940e-06	2	true	GAMG	1.577600e-04	7.781070e-07	3	true
62            	smoothSolver	3.382260e-04	2.188240e-05	3	9.042240e-04	5.716380e-05	3	1.039330e-03	7.980670e-05	3	false	smoothSolver	2.240600e-03	9.489810e-05	2	true	smoothSolver	1.301070e-04	1.983200e-06	2	true	GAMG	1.508710e-04	7.374460e-07	3	true
63            	smoothSolver	3.077850e-04	1.926450e-05	3	8.402990e-04	5.125290e-05	3	9.647200e-04	7.139530e-05	3	false	smoothSolver	2.141350e-03	9.045740e-05	2	true	smoothSolver	1.205020e-04	1.808270e-06	2	true	GAMG	1.437090e-04	7.005410e-07	3	true
64            	smoothSolver	2.795910e-04	1.694110e-05	3	7.787240e-04	4.590770e-05	3	8.925520e-04	6.379190e-05	3	false	smoothSolver	2.042250e-03	8.610280e-05	2	true	smoothSolver	1.113720e-04	1.645610e-06	2	true	GAMG	1.363100e-04	6.689030e-07	3	true
65            	smoothSolver	2.535520e-04	1.488330e-05	3	7.203730e-04	4.108430e-05	3	8.268610e-04	5.692670e-05	3	false	smoothSolver	1.943720e-03	8.184380e-05	2	true	smoothSolver	1.027090e-04	1.494650e-06	2	true	GAMG	1.286780e-04	6.420360e-07	3	true
66            	smoothSolver	2.295270e-04	1.306420e-05	3	6.665560e-04	3.673670e-05	3	7.654810e-04	5.073630e-05	3	false	smoothSolver	1.846130e-03	7.768860e-05	2	true	smoothSolver	9.450500e-05	1.354830e-06	2	true	GAMG	1.211810e-04	6.191380e-07	3	true
67            	smoothSolver	2.073900e-04	1.145890e-05	3	6.169910e-04	3.282780e-05	3	7.075460e-04	4.516840e-05	3	false	smoothSolver	1.749840e-03	7.364460e-05	2	true	smoothSolver	8.675610e-05	1.225600e-06	2	true	GAMG	1.140140e-04	5.971090e-07	3	true
68            	smoothSolver	1.870570e-04	1.004470e-05	3	5.702680e-04	2.931700e-05	3	6.528180e-04	4.017950e-05	3	false	smoothSolver	1.654390e-03	6.968440e-05	2	true	smoothSolver	7.945080e-05	7.861400e-06	1	true	GAMG	1.071800e-04	5.751730e-07	3	true
69            	smoothSolver	1.676380e-04	8.758590e-06	3	5.227340e-04	2.578640e-05	3	5.999180e-04	3.546890e-05	3	false	smoothSolver	1.560730e-03	6.589910e-05	2	true	smoothSolver	7.323720e-05	7.170240e-06	1	true	GAMG	1.007480e-04	5.427470e-07	3	true
70            	smoothSolver	1.500900e-04	7.637960e-06	3	4.800880e-04	2.275960e-05	3	5.518010e-04	3.130530e-05	3	false	smoothSolver	1.469810e-03	6.224160e-05	2	true	smoothSolver	6.734150e-05	6.540350e-06	1	true	GAMG	9.504200e-05	5.176940e-07	3	true
71            	smoothSolver	1.342820e-04	6.666740e-06	3	4.408560e-04	2.017970e-05	3	5.071940e-04	2.769000e-05	3	false	smoothSolver	1.381850e-03	5.871490e-05	2	true	smoothSolver	6.175990e-05	5.956670e-06	1	true	GAMG	8.976540e-05	4.939630e-07	3	true
72            	smoothSolver	1.200640e-04	5.826260e-06	3	4.044570e-04	3.941410e-05	2	4.651300e-04	2.453450e-05	3	false	smoothSolver	1.297040e-03	5.532110e-05	2	true	smoothSolver	5.649330e-05	5.415610e-06	1	true	GAMG	8.449620e-05	4.677790e-07	3	true
73            	smoothSolver	1.073420e-04	5.101940e-06	3	3.836830e-04	3.765730e-05	2	4.284410e-04	2.193950e-05	3	false	smoothSolver	1.215530e-03	5.206150e-05	2	true	smoothSolver	5.154410e-05	4.915330e-06	1	true	GAMG	7.940320e-05	4.433620e-07	3	true
74            	smoothSolver	9.586020e-05	4.470990e-06	3	3.554870e-04	3.477570e-05	2	3.924440e-04	1.951410e-05	3	false	smoothSolver	1.137430e-03	4.893680e-05	2	true	smoothSolver	4.691250e-05	4.453950e-06	1	true	GAMG	7.448850e-05	4.176330e-07	3	true
75            	smoothSolver	8.553370e-05	3.922810e-06	3	3.264200e-04	3.160970e-05	2	3.589060e-04	1.731490e-05	3	false	smoothSolver	1.062800e-03	4.594690e-05	2	true	smoothSolver	4.259540e-05	4.029500e-06	1	true	GAMG	6.975790e-05	3.909650e-07	3	true
76            	smoothSolver	7.625560e-05	7.595070e-06	2	2.987830e-04	2.855140e-05	2	3.281790e-04	1.535720e-05	3	false	smoothSolver	9.918070e-04	4.309170e-05	2	true	smoothSolver	3.857540e-05	3.639240e-06	1	true	GAMG	6.487730e-05	4.016330e-07	3	true
77            	smoothSolver	6.928310e-05	3.171500e-06	3	2.661540e-04	2.491230e-05	2	2.921420e-04	2.836400e-05	2	false	smoothSolver	9.242520e-04	4.036830e-05	2	true	smoothSolver	3.487300e-05	3.282770e-06	1	true	GAMG	6.081540e-05	3.371820e-07	3	true
78            	smoothSolver	6.135060e-05	6.085630e-06	2	2.507170e-04	2.313790e-05	2	2.831060e-04	2.775800e-05	2	false	smoothSolver	8.603470e-04	3.777660e-05	2	true	smoothSolver	3.145060e-05	2.956030e-06	1	true	GAMG	5.611600e-05	3.400930e-07	3	true
79            	smoothSolver	5.543900e-05	2.523020e-06	3	2.260000e-04	2.040800e-05	2	2.584380e-04	2.512380e-05	2	false	smoothSolver	7.998830e-04	3.531290e-05	2	true	smoothSolver	2.831870e-05	2.658530e-06	1	true	GAMG	5.234800e-05	2.983540e-07	3	true
80            	smoothSolver	4.885320e-05	4.815270e-06	2	2.124020e-04	1.892730e-05	2	2.432240e-04	2.341770e-05	2	false	smoothSolver	7.429650e-04	3.297570e-05	2	true	smoothSolver	2.544350e-05	2.386930e-06	1	true	GAMG	4.808610e-05	2.877580e-07	3	true
81            	smoothSolver	4.399600e-05	4.385530e-06	2	1.913230e-04	1.667480e-05	2	2.201180e-04	2.081260e-05	2	false	smoothSolver	6.894190e-04	3.076110e-05	2	true	smoothSolver	2.282250e-05	2.140150e-06	1	true	GAMG	4.439370e-05	2.467390e-07	3	true
82            	smoothSolver	3.947040e-05	1.803580e-06	3	1.750850e-04	1.495050e-05	2	2.012130e-04	1.866040e-05	2	false	smoothSolver	6.391080e-04	2.866560e-05	2	true	smoothSolver	2.044540e-05	1.916550e-06	1	true	GAMG	4.106240e-05	2.530510e-07	3	true
83            	smoothSolver	3.457670e-05	3.415940e-06	2	1.648790e-04	1.395380e-05	2	1.891830e-04	1.739520e-05	2	false	smoothSolver	5.920260e-04	2.668640e-05	2	true	smoothSolver	1.828270e-05	1.713500e-06	1	true	GAMG	3.749430e-05	2.111450e-07	3	true
84            	smoothSolver	3.100170e-05	3.094960e-06	2	1.483160e-04	1.231030e-05	2	1.707990e-04	1.538340e-05	2	false	smoothSolver	5.479770e-04	2.481900e-05	2	true	smoothSolver	1.632670e-05	1.529900e-06	1	true	GAMG	3.444530e-05	1.796990e-07	3	true
85            	smoothSolver	2.772460e-05	1.268570e-06	3	1.353380e-04	1.103130e-05	2	1.556490e-04	1.373930e-05	2	false	smoothSolver	5.067970e-04	2.305920e-05	2	true	smoothSolver	1.456500e-05	1.364290e-06	1	true	GAMG	3.172790e-05	1.935480e-07	3	true
86            	smoothSolver	2.423270e-05	2.397230e-06	2	1.269390e-04	1.027200e-05	2	1.456630e-04	1.277880e-05	2	false	smoothSolver	4.684150e-04	2.140340e-05	2	true	smoothSolver	1.297280e-05	1.214570e-06	1	true	GAMG	2.889630e-05	1.525610e-07	3	true
87            	smoothSolver	2.169400e-05	2.168980e-06	2	1.139360e-04	9.047520e-06	2	1.313900e-04	1.127510e-05	2	false	smoothSolver	4.326400e-04	1.984710e-05	2	true	smoothSolver	1.154100e-05	1.079720e-06	1	true	GAMG	2.647210e-05	1.301100e-07	3	true
88            	smoothSolver	1.938740e-05	8.872560e-07	3	1.036020e-04	8.091230e-06	2	1.195710e-04	1.005060e-05	2	false	smoothSolver	3.993090e-04	1.838580e-05	2	true	smoothSolver	1.025800e-05	9.585520e-07	1	true	GAMG	2.429940e-05	1.445200e-07	3	true
89            	smoothSolver	1.694770e-05	1.677750e-06	2	9.666620e-05	7.512460e-06	2	1.115200e-04	9.333210e-06	2	false	smoothSolver	3.683260e-04	1.701580e-05	2	true	smoothSolver	9.104130e-06	8.494170e-07	1	true	GAMG	2.209040e-05	1.086930e-07	3	true
90            	smoothSolver	1.518760e-05	1.517640e-06	2	8.670930e-05	6.606180e-06	2	1.005370e-04	8.223560e-06	2	false	smoothSolver	3.395220e-04	1.573240e-05	2	true	smoothSolver	8.070750e-06	7.514530e-07	1	true	GAMG	2.018600e-05	9.495720e-08	3	true
91            	smoothSolver	1.358570e-05	6.188500e-07	3	7.881800e-05	5.896930e-06	2	9.123690e-05	7.287920e-06	2	false	smoothSolver	3.127490e-04	1.453160e-05	2	true	smoothSolver	7.148440e-06	6.637350e-07	1	true	GAMG	1.849940e-05	1.103700e-07	3	true
92            	smoothSolver	1.190450e-05	1.174960e-06	2	7.337040e-05	5.459160e-06	2	8.521880e-05	6.805850e-06	2	false	smoothSolver	2.879120e-04	1.340950e-05	2	true	smoothSolver	6.321990e-06	5.850250e-07	1	true	GAMG	1.677670e-05	7.739880e-08	3	true
93            	smoothSolver	1.068980e-05	1.061960e-06	2	6.577850e-05	4.792820e-06	2	7.664390e-05	5.958710e-06	2	false	smoothSolver	2.648670e-04	1.236180e-05	2	true	smoothSolver	5.584560e-06	5.146530e-07	1	true	GAMG	1.531050e-05	7.143640e-08	3	true
94            	smoothSolver	9.586060e-06	9.562240e-07	2	5.970320e-05	4.270000e-06	2	6.976170e-05	5.308080e-06	2	false	smoothSolver	2.434990e-04	1.138480e-05	2	true	smoothSolver	4.927270e-06	4.518440e-07	1	true	GAMG	1.394430e-05	6.642530e-08	3	true
95            	smoothSolver	8.584920e-06	8.581030e-07	2	5.447230e-05	3.828810e-06	2	6.375530e-05	4.767130e-06	2	false	smoothSolver	2.236980e-04	1.047460e-05	2	true	smoothSolver	4.342040e-06	3.958810e-07	1	true	GAMG	1.268930e-05	6.122140e-08	3	true
96            	smoothSolver	7.681700e-06	3.471490e-07	3	4.970750e-05	3.438400e-06	2	5.832970e-05	4.293210e-06	2	false	smoothSolver	2.053540e-04	9.627570e-06	2	true	smoothSolver	3.822390e-06	3.461800e-07	1	true	GAMG	1.157050e-05	6.917330e-08	3	true
97            	smoothSolver	6.725190e-06	6.555500e-07	2	4.605790e-05	3.173610e-06	2	5.390200e-05	3.948510e-06	2	false	smoothSolver	1.883860e-04	8.840250e-06	2	true	smoothSolver	3.359540e-06	3.020380e-07	1	true	GAMG	1.049100e-05	4.757680e-08	3	true
98            	smoothSolver	6.057710e-06	5.951120e-07	2	4.133720e-05	2.783410e-06	2	4.906540e-05	3.536600e-06	2	false	smoothSolver	1.726900e-04	8.109160e-06	2	true	smoothSolver	2.948920e-06	2.630980e-07	1	true	GAMG	9.535500e-06	4.317910e-08	3	true
99            	smoothSolver	5.431820e-06	5.332230e-07	2	3.750780e-05	2.467710e-06	2	4.450890e-05	3.126610e-06	2	false	smoothSolver	1.581800e-04	7.431000e-06	2	true	smoothSolver	2.585140e-06	2.288920e-07	1	true	GAMG	8.671610e-06	3.975080e-08	3	true
100           	smoothSolver	4.869920e-06	4.775020e-07	2	3.420420e-05	2.201360e-06	2	4.063140e-05	2.790080e-06	2	false	smoothSolver	1.447750e-04	6.802630e-06	2	true	smoothSolver	2.263260e-06	1.988780e-07	1	true	GAMG	7.881330e-06	3.658290e-08	3	true
101           	smoothSolver	4.363540e-06	4.266580e-07	2	3.121450e-05	1.966400e-06	2	3.716700e-05	2.498510e-06	2	false	smoothSolver	1.324000e-04	6.221010e-06	2	true	smoothSolver	1.978870e-06	1.723960e-07	1	true	GAMG	7.161640e-06	3.332530e-08	3	true
102           	smoothSolver	3.908540e-06	3.805990e-07	2	2.848200e-05	1.755910e-06	2	3.402060e-05	2.240030e-06	2	false	smoothSolver	1.209820e-04	5.683250e-06	2	true	smoothSolver	1.727940e-06	1.490160e-07	1	true	GAMG	6.505780e-06	3.017210e-08	3	true
103           	smoothSolver	3.500670e-06	3.390080e-07	2	2.598390e-05	1.566230e-06	2	3.113620e-05	2.007390e-06	2	false	smoothSolver	1.104560e-04	5.186570e-06	2	true	smoothSolver	1.506780e-06	1.284830e-07	1	true	GAMG	5.909050e-06	9.425940e-08	2	true
104           	smoothSolver	3.118720e-06	2.976660e-07	2	2.359290e-05	1.382560e-06	2	2.813190e-05	1.740490e-06	2	false	smoothSolver	1.007570e-04	4.728330e-06	2	true	smoothSolver	1.312570e-06	1.105330e-07	1	true	GAMG	5.401300e-06	8.960160e-08	2	true
105           	smoothSolver	2.803630e-06	2.655200e-07	2	2.168970e-05	1.246420e-06	2	2.601570e-05	1.594410e-06	2	false	smoothSolver	9.182680e-05	4.306020e-06	2	true	smoothSolver	1.142260e-06	9.489480e-08	1	true	GAMG	4.896290e-06	7.976910e-08	2	true
106           	smoothSolver	2.514420e-06	2.372000e-07	2	1.974570e-05	1.105800e-06	2	2.386880e-05	1.435940e-06	2	false	smoothSolver	8.361160e-05	3.917230e-06	2	true	smoothSolver	9.931720e-07	8.132390e-08	1	true	GAMG	4.446310e-06	7.089800e-08	2	true
107           	smoothSolver	2.251320e-06	2.110080e-07	2	1.797360e-05	9.790240e-07	2	2.181380e-05	1.281620e-06	2	false	smoothSolver	7.605950e-05	3.559710e-06	2	true	smoothSolver	8.629920e-07	6.959880e-08	1	true	GAMG	4.039620e-06	6.350360e-08	2	true
108           	smoothSolver	2.015760e-06	1.873190e-07	2	1.638880e-05	8.677560e-07	2	1.993850e-05	1.143490e-06	2	false	smoothSolver	6.912260e-05	3.231290e-06	2	true	smoothSolver	7.496110e-07	5.952090e-08	1	true	GAMG	3.670130e-06	5.675530e-08	2	true
109           	smoothSolver	1.804660e-06	1.660110e-07	2	1.494890e-05	7.687220e-07	2	1.821840e-05	1.019340e-06	2	false	smoothSolver	6.275610e-05	2.929950e-06	2	true	smoothSolver	6.511360e-07	5.090740e-08	1	true	GAMG	3.333780e-06	5.066830e-08	2	true
110           	smoothSolver	1.615660e-06	1.469380e-07	2	1.363120e-05	6.803820e-07	2	1.664740e-05	9.076860e-07	2	false	smoothSolver	5.691830e-05	2.653750e-06	2	true	smoothSolver	5.658340e-07	4.358380e-08	1	true	GAMG	3.028820e-06	4.524450e-08	2	true
111           	smoothSolver	1.446290e-06	1.299270e-07	2	1.242600e-05	6.015750e-07	2	1.521300e-05	8.073450e-07	2	false	smoothSolver	5.157000e-05	2.400890e-06	2	true	smoothSolver	4.921570e-07	3.739910e-08	1	true	GAMG	2.752190e-06	4.043660e-08	2	true
112           	smoothSolver	1.294540e-06	1.147930e-07	2	1.132410e-05	5.313950e-07	2	1.390000e-05	7.173350e-07	2	false	smoothSolver	4.667470e-05	2.169650e-06	2	true	smoothSolver	4.287400e-07	3.221800e-08	1	true	GAMG	2.500760e-06	3.617760e-08	2	true
113           	smoothSolver	1.158620e-06	1.013470e-07	2	1.032100e-05	4.688950e-07	2	1.270170e-05	6.366950e-07	2	false	smoothSolver	4.219860e-05	1.958430e-06	2	true	smoothSolver	3.743640e-07	2.791500e-08	1	true	GAMG	2.272050e-06	3.238840e-08	2	true
114           	smoothSolver	1.036860e-06	8.941430e-08	2	9.406760e-06	4.132870e-07	2	1.160700e-05	5.645880e-07	2	false	smoothSolver	3.810960e-05	1.765720e-06	2	true	smoothSolver	3.279040e-07	2.437410e-08	1	true	GAMG	2.064030e-06	2.900240e-08	2	true
115           	smoothSolver	9.278340e-07	7.883090e-08	2	8.572650e-06	3.638860e-07	2	1.060620e-05	5.001790e-07	2	false	smoothSolver	3.437820e-05	1.590100e-06	2	true	smoothSolver	2.883580e-07	2.149400e-08	1	true	GAMG	1.874980e-06	2.596780e-08	2	true
116           	smoothSolver	8.302860e-07	6.944980e-08	2	7.810740e-06	3.200050e-07	2	9.693950e-06	4.427180e-07	2	false	smoothSolver	3.097680e-05	1.430240e-06	2	true	smoothSolver	2.548370e-07	1.918390e-08	1	true	GAMG	1.703420e-06	2.324460e-08	2	true
117           	smoothSolver	7.430980e-07	6.113860e-08	2	7.117250e-06	2.811110e-07	2	8.867520e-06	3.914110e-07	2	false	smoothSolver	2.787940e-05	1.284900e-06	2	true	smoothSolver	2.265520e-07	1.735750e-08	1	true	GAMG	1.547460e-06	2.080150e-08	2	true
118           	smoothSolver	6.650950e-07	5.377560e-08	2	6.486120e-06	2.466600e-07	2	8.114830e-06	3.456610e-07	2	false	smoothSolver	2.506210e-05	1.152930e-06	2	true	smoothSolver	2.027340e-07	1.593650e-08	1	true	GAMG	1.405680e-06	1.861090e-08	2	true
119           	smoothSolver	5.952450e-07	4.725840e-08	2	5.913710e-06	2.161480e-07	2	7.426890e-06	3.048910e-07	2	false	smoothSolver	2.250240e-05	1.033240e-06	2	true	smoothSolver	1.827360e-07	1.484310e-08	1	true	GAMG	1.277000e-06	1.665010e-08	2	true