# Moment      
# CofR        : (-1.000000e+01 0.000000e+00 0.000000e+00)
#
# Time        	total_x total_y total_z	pressure_x pressure_y pressure_z	viscous_x viscous_y viscous_z
1              -7.327582e-01 -2.760252e+02 1.625996e+01 -7.328046e-01 -2.760531e+02 1.625482e+01 4.639079e-05 2.793663e-02 5.142258e-03
2              -1.977672e-01 -6.706795e+01 5.103432e+00 -1.999057e-01 -6.814244e+01 5.116680e+00 2.138465e-03 1.074489e+00 -1.324795e-02
3              4.148369e-02 7.171787e+01 3.545233e+01 3.764827e-02 7.035018e+01 3.559167e+01 3.835416e-03 1.367688e+00 -1.393397e-01
4              -2.159160e-01 2.152494e+02 1.204161e+02 -2.189412e-01 2.143931e+02 1.205573e+02 3.025162e-03 8.562530e-01 -1.411886e-01
5              1.157281e+00 1.399445e+02 -9.164378e+01 1.156199e+00 1.390704e+02 -9.177313e+01 1.082312e-03 8.741233e-01 1.293581e-01
6              -3.819239e-01 5.588871e+01 8.867088e+01 -3.838870e-01 5.507913e+01 8.864377e+01 1.963052e-03 8.095781e-01 2.711048e-02
7              2.860806e-01 2.677894e+01 -1.576417e+01 2.832667e-01 2.616665e+01 -1.559597e+01 2.813970e-03 6.122897e-01 -1.681966e-01
8              -3.242152e-01 2.029849e+01 6.523502e+01 -3.270909e-01 1.989988e+01 6.542709e+01 2.875695e-03 3.986053e-01 -1.920685e-01
9              3.302633e-01 3.793991e+01 -2.701022e+01 3.275617e-01 3.762106e+01 -2.683905e+01 2.701582e-03 3.188546e-01 -1.711707e-01
10             -7.143009e-02 5.212864e+01 2.895696e+01 -7.074962e-02 5.172483e+01 2.860160e+01 -6.804661e-04 4.038008e-01 3.553581e-01
11             2.077168e-01 6.686306e+01 -6.696108e+00 2.049559e-01 6.666141e+01 -6.591502e+00 2.760985e-03 2.016557e-01 -1.046061e-01
12             1.890107e-01 6.926809e+01 -5.469429e-01 1.861923e-01 6.903841e+01 -4.323723e-01 2.818390e-03 2.296819e-01 -1.145707e-01
13             2.796274e-01 6.845368e+01 -1.328766e+01 2.755950e-01 6.810304e+01 -1.294667e+01 4.032461e-03 3.506483e-01 -3.409910e-01
14             2.277239e-01 5.970233e+01 -9.478026e+00 2.247192e-01 5.932632e+01 -9.194218e+00 3.004728e-03 3.760145e-01 -2.838079e-01
15             2.320811e-01 4.641892e+01 -1.570907e+01 2.297667e-01 4.616274e+01 -1.545246e+01 2.314363e-03 2.561787e-01 -2.566125e-01
16             1.867170e-01 3.511389e+01 -1.405393e+01 1.853980e-01 3.490903e+01 -1.389356e+01 1.318959e-03 2.048635e-01 -1.603654e-01
17             1.594908e-01 2.681262e+01 -1.362975e+01 1.584196e-01 2.669644e+01 -1.347778e+01 1.071229e-03 1.161811e-01 -1.519739e-01
18             1.655411e-01 2.222320e+01 -1.655762e+01 1.644728e-01 2.207476e+01 -1.639752e+01 1.068320e-03 1.484385e-01 -1.601057e-01
19             1.355726e-01 1.972292e+01 -1.472589e+01 1.351215e-01 1.959744e+01 -1.461928e+01 4.510705e-04 1.254832e-01 -1.066101e-01
20             1.495066e-01 1.839497e+01 -1.849437e+01 1.485906e-01 1.824614e+01 -1.830820e+01 9.159872e-04 1.488328e-01 -1.861734e-01
21             1.241630e-01 1.595263e+01 -1.662411e+01 1.240484e-01 1.580854e+01 -1.653399e+01 1.145870e-04 1.440878e-01 -9.011643e-02
22             1.205574e-01 1.116691e+01 -1.742921e+01 1.196638e-01 1.106060e+01 -1.723672e+01 8.935454e-04 1.063101e-01 -1.924939e-01
23             8.897709e-02 5.348299e+00 -1.434529e+01 8.871362e-02 5.262726e+00 -1.423224e+01 2.634659e-04 8.557327e-02 -1.130538e-01
24             7.450278e-02 -1.178211e-01 -1.322171e+01 7.393117e-02 -1.692405e-01 -1.306006e+01 5.716132e-04 5.141939e-02 -1.616503e-01
25             4.523966e-02 -4.254357e+00 -9.471026e+00 4.506150e-02 -4.273021e+00 -9.359627e+00 1.781556e-04 1.866440e-02 -1.113983e-01
26             3.432499e-02 -7.216336e+00 -7.687232e+00 3.383187e-02 -7.219816e+00 -7.522398e+00 4.931259e-04 3.479783e-03 -1.648344e-01
27             8.647809e-03 -8.582817e+00 -3.528214e+00 8.579059e-03 -8.571098e+00 -3.415339e+00 6.875017e-05 -1.171937e-02 -1.128747e-01
28             1.082744e-03 -9.160238e+00 -1.785280e+00 6.405541e-04 -9.140650e+00 -1.618355e+00 4.421897e-04 -1.958865e-02 -1.669254e-01
29             -1.553830e-02 -9.165101e+00 1.074484e+00 -1.572134e-02 -9.131382e+00 1.197426e+00 1.830388e-04 -3.371932e-02 -1.229422e-01
30             -1.986207e-02 -9.209696e+00 2.014958e+00 -2.009828e-02 -9.190676e+00 2.135396e+00 2.362146e-04 -1.902023e-02 -1.204383e-01
31             -3.121481e-02 -9.320416e+00 3.701607e+00 -3.120094e-02 -9.284566e+00 3.771352e+00 -1.386852e-05 -3.585007e-02 -6.974504e-02
32             -3.409874e-02 -9.200496e+00 4.208602e+00 -3.419850e-02 -9.175360e+00 4.277623e+00 9.976344e-05 -2.513598e-02 -6.902109e-02
33             -3.921490e-02 -8.810480e+00 5.005629e+00 -3.909270e-02 -8.781816e+00 5.027370e+00 -1.222055e-04 -2.866395e-02 -2.174129e-02
34             -3.635568e-02 -8.132359e+00 4.685808e+00 -3.632066e-02 -8.115410e+00 4.705271e+00 -3.501346e-05 -1.694886e-02 -1.946324e-02
35             -3.533514e-02 -7.537746e+00 4.492309e+00 -3.520910e-02 -7.521684e+00 4.485962e+00 -1.260397e-04 -1.606231e-02 6.346365e-03
36             -3.225821e-02 -7.248409e+00 3.853102e+00 -3.216916e-02 -7.238451e+00 3.843132e+00 -8.904688e-05 -9.957815e-03 9.970276e-03
37             -3.059093e-02 -7.275870e+00 3.235905e+00 -3.043976e-02 -7.266836e+00 3.213124e+00 -1.511738e-04 -9.034564e-03 2.278045e-02
38             -2.805973e-02 -7.465730e+00 2.453312e+00 -2.790132e-02 -7.456857e+00 2.428701e+00 -1.584061e-04 -8.873028e-03 2.461135e-02
39             -2.626876e-02 -7.672130e+00 1.821322e+00 -2.606523e-02 -7.659316e+00 1.789766e+00 -2.035340e-04 -1.281365e-02 3.155580e-02
40             -2.388450e-02 -7.822805e+00 1.202669e+00 -2.367799e-02 -7.807625e+00 1.172751e+00 -2.065067e-04 -1.517997e-02 2.991813e-02
41             -2.193572e-02 -7.928137e+00 7.132868e-01 -2.169810e-02 -7.906914e+00 6.808019e-01 -2.376121e-04 -2.122321e-02 3.248490e-02
42             -1.977743e-02 -7.973851e+00 2.434621e-01 -1.954523e-02 -7.949704e+00 2.138724e-01 -2.322041e-04 -2.414719e-02 2.958966e-02
43             -1.811095e-02 -7.949077e+00 -1.126615e-01 -1.786786e-02 -7.918951e+00 -1.419313e-01 -2.430933e-04 -3.012552e-02 2.926980e-02
44             -1.645873e-02 -7.852261e+00 -4.197706e-01 -1.622140e-02 -7.819759e+00 -4.467955e-01 -2.373265e-04 -3.250201e-02 2.702483e-02
45             -1.509051e-02 -7.689446e+00 -6.419833e-01 -1.486043e-02 -7.651759e+00 -6.669304e-01 -2.300825e-04 -3.768713e-02 2.494713e-02
46             -1.380627e-02 -7.440476e+00 -7.985828e-01 -1.358886e-02 -7.400809e+00 -8.208926e-01 -2.174080e-04 -3.966779e-02 2.230983e-02
47             -1.269337e-02 -7.093052e+00 -8.711760e-01 -1.248868e-02 -7.050024e+00 -8.913211e-01 -2.046834e-04 -4.302833e-02 2.014516e-02
48             -1.158310e-02 -6.634051e+00 -8.798993e-01 -1.139332e-02 -6.590085e+00 -8.977555e-01 -1.897773e-04 -4.396583e-02 1.785615e-02
49             -1.051490e-02 -6.098006e+00 -8.402826e-01 -1.033780e-02 -6.053462e+00 -8.565938e-01 -1.770977e-04 -4.454373e-02 1.631116e-02
50             -9.346352e-03 -5.471974e+00 -7.623226e-01 -9.183612e-03 -5.428711e+00 -7.769391e-01 -1.627406e-04 -4.326309e-02 1.461648e-02
51             -8.211669e-03 -4.848283e+00 -6.819179e-01 -8.061220e-03 -4.806732e+00 -6.948518e-01 -1.504482e-04 -4.155100e-02 1.293397e-02
52             -7.104530e-03 -4.258624e+00 -6.088800e-01 -6.967041e-03 -4.220108e+00 -6.199136e-01 -1.374896e-04 -3.851566e-02 1.103363e-02
53             -6.158857e-03 -3.751385e+00 -5.443531e-01 -6.032667e-03 -3.715560e+00 -5.536480e-01 -1.261904e-04 -3.582467e-02 9.294894e-03
54             -5.464438e-03 -3.385738e+00 -5.044895e-01 -5.347895e-03 -3.353054e+00 -5.122306e-01 -1.165435e-04 -3.268356e-02 7.741126e-03
55             -5.056367e-03 -3.134703e+00 -4.714322e-01 -4.946999e-03 -3.104026e+00 -4.778222e-01 -1.093681e-04 -3.067727e-02 6.389941e-03
56             -5.082808e-03 -3.056280e+00 -4.380273e-01 -4.979258e-03 -3.027297e+00 -4.428265e-01 -1.035494e-04 -2.898302e-02 4.799279e-03
57             -5.503086e-03 -3.100204e+00 -3.907680e-01 -5.400212e-03 -3.071979e+00 -3.943259e-01 -1.028744e-04 -2.822494e-02 3.557889e-03
58             -6.203575e-03 -3.226842e+00 -3.331032e-01 -6.099336e-03 -3.198508e+00 -3.354307e-01 -1.042385e-04 -2.833314e-02 2.327434e-03
59             -7.101939e-03 -3.403543e+00 -2.667708e-01 -6.991841e-03 -3.374293e+00 -2.683597e-01 -1.100982e-04 -2.925017e-02 1.588824e-03
60             -8.062999e-03 -3.603922e+00 -2.001700e-01 -7.946837e-03 -3.572923e+00 -2.009430e-01 -1.161618e-04 -3.099973e-02 7.729730e-04
61             -8.985941e-03 -3.800810e+00 -1.369300e-01 -8.861583e-03 -3.767664e+00 -1.372438e-01 -1.243584e-04 -3.314600e-02 3.137569e-04
62             -9.762324e-03 -3.954223e+00 -7.556000e-02 -9.630851e-03 -3.918734e+00 -7.536819e-02 -1.314722e-04 -3.548832e-02 -1.918177e-04
63             -1.029269e-02 -4.030563e+00 -1.783094e-02 -1.015499e-02 -3.993117e+00 -1.741343e-02 -1.377021e-04 -3.744575e-02 -4.175113e-04
64             -1.052118e-02 -4.006868e+00 3.644198e-02 -1.037989e-02 -3.968162e+00 3.711047e-02 -1.412905e-04 -3.870579e-02 -6.684808e-04
65             -1.043552e-02 -3.886708e+00 8.132394e-02 -1.029152e-02 -3.847643e+00 8.176041e-02 -1.439956e-04 -3.906524e-02 -4.364626e-04
66             -1.005580e-02 -3.690804e+00 1.125416e-01 -9.917781e-03 -3.652180e+00 1.133880e-01 -1.380197e-04 -3.862402e-02 -8.463697e-04
67             -9.513861e-03 -3.449587e+00 1.342268e-01 -9.382551e-03 -3.412756e+00 1.350053e-01 -1.313104e-04 -3.683050e-02 -7.784852e-04
68             -8.935062e-03 -3.210862e+00 1.453840e-01 -8.814007e-03 -3.176200e+00 1.461698e-01 -1.210546e-04 -3.466224e-02 -7.857613e-04
69             -8.460387e-03 -3.020726e+00 1.503171e-01 -8.351007e-03 -2.988612e+00 1.511294e-01 -1.093799e-04 -3.211373e-02 -8.122560e-04
70             -8.145409e-03 -2.912114e+00 1.467663e-01 -8.050007e-03 -2.882041e+00 1.479105e-01 -9.540245e-05 -3.007325e-02 -1.144285e-03
71             -8.107118e-03 -2.898147e+00 1.474812e-01 -8.014874e-03 -2.869946e+00 1.477235e-01 -9.224321e-05 -2.820160e-02 -2.423083e-04
72             -8.219156e-03 -2.974462e+00 1.381763e-01 -8.137668e-03 -2.947283e+00 1.388776e-01 -8.148756e-05 -2.717822e-02 -7.013575e-04
73             -8.615484e-03 -3.121928e+00 1.434054e-01 -8.527955e-03 -3.094986e+00 1.426809e-01 -8.752915e-05 -2.694127e-02 7.245085e-04
74             -9.022895e-03 -3.316198e+00 1.343432e-01 -8.943431e-03 -3.288496e+00 1.344589e-01 -7.946438e-05 -2.770184e-02 -1.157406e-04
75             -9.522227e-03 -3.528733e+00 1.314558e-01 -9.435816e-03 -3.499798e+00 1.306518e-01 -8.641070e-05 -2.893470e-02 8.040526e-04
76             -9.908085e-03 -3.726408e+00 1.178440e-01 -9.822899e-03 -3.695879e+00 1.174049e-01 -8.518585e-05 -3.052923e-02 4.390993e-04
77             -1.019345e-02 -3.874504e+00 1.075137e-01 -1.010013e-02 -3.842385e+00 1.062324e-01 -9.331911e-05 -3.211870e-02 1.281239e-03
78             -1.019341e-02 -3.942466e+00 8.602955e-02 -1.010472e-02 -3.909014e+00 8.552863e-02 -8.868623e-05 -3.345234e-02 5.009234e-04
79             -1.005963e-02 -3.909555e+00 8.119407e-02 -9.958374e-03 -3.876057e+00 7.896115e-02 -1.012570e-04 -3.349850e-02 2.232929e-03
80             -9.507937e-03 -3.772632e+00 5.577177e-02 -9.422540e-03 -3.739547e+00 5.530454e-02 -8.539707e-05 -3.308496e-02 4.672359e-04
81             -8.919561e-03 -3.556814e+00 5.202592e-02 -8.825261e-03 -3.525137e+00 4.963476e-02 -9.429946e-05 -3.167652e-02 2.391157e-03
82             -8.121291e-03 -3.305363e+00 3.203578e-02 -8.044603e-03 -3.275609e+00 3.110839e-02 -7.668820e-05 -2.975382e-02 9.273842e-04
83             -7.488062e-03 -3.081186e+00 2.285829e-02 -7.408993e-03 -3.053497e+00 2.064692e-02 -7.906947e-05 -2.768859e-02 2.211366e-03
84             -6.983234e-03 -2.923354e+00 7.228403e-03 -6.914182e-03 -2.897612e+00 5.564948e-03 -6.905196e-05 -2.574135e-02 1.663454e-03
85             -6.782715e-03 -2.863634e+00 -1.595246e-03 -6.713447e-03 -2.839125e+00 -3.873044e-03 -6.926765e-05 -2.450975e-02 2.277798e-03
86             -6.856950e-03 -2.908138e+00 -9.275069e-03 -6.789503e-03 -2.884152e+00 -1.160525e-02 -6.744672e-05 -2.398610e-02 2.330184e-03
87             -7.190083e-03 -3.042618e+00 -1.226618e-02 -7.119403e-03 -3.018295e+00 -1.503890e-02 -7.068070e-05 -2.432273e-02 2.772719e-03
88             -7.701031e-03 -3.241212e+00 -1.198961e-02 -7.626642e-03 -3.215872e+00 -1.499625e-02 -7.438921e-05 -2.534050e-02 3.006640e-03
89             -8.333981e-03 -3.477437e+00 -6.312796e-03 -8.251678e-03 -3.450614e+00 -9.947398e-03 -8.230298e-05 -2.682242e-02 3.634601e-03
90             -8.963000e-03 -3.712867e+00 2.676655e-04 -8.875529e-03 -3.684272e+00 -3.509959e-03 -8.747083e-05 -2.859432e-02 3.777624e-03
91             -9.522670e-03 -3.908696e+00 1.133812e-02 -9.425462e-03 -3.878270e+00 6.776364e-03 -9.720771e-05 -3.042534e-02 4.561760e-03
92             -9.898044e-03 -4.035788e+00 2.056074e-02 -9.796827e-03 -4.003781e+00 1.592559e-02 -1.012170e-04 -3.200746e-02 4.635152e-03
93             -1.004636e-02 -4.067958e+00 3.027577e-02 -9.938667e-03 -4.034924e+00 2.508553e-02 -1.076977e-04 -3.303375e-02 5.190241e-03
94             -9.913913e-03 -3.993348e+00 3.705995e-02 -9.805376e-03 -3.960012e+00 3.188950e-02 -1.085365e-04 -3.333648e-02 5.170452e-03
95             -9.534422e-03 -3.819910e+00 4.326586e-02 -9.424235e-03 -3.787193e+00 3.776206e-02 -1.101875e-04 -3.271780e-02 5.503799e-03
96             -8.959133e-03 -3.580165e+00 4.494346e-02 -8.852638e-03 -3.548797e+00 3.960824e-02 -1.064943e-04 -3.136777e-02 5.335218e-03
97             -8.310973e-03 -3.322172e+00 4.263074e-02 -8.207374e-03 -3.292738e+00 3.723658e-02 -1.035982e-04 -2.943436e-02 5.394162e-03
98             -7.709555e-03 -3.100121e+00 3.412987e-02 -7.611579e-03 -3.072619e+00 2.904681e-02 -9.797546e-05 -2.750256e-02 5.083055e-03
99             -7.279174e-03 -2.957521e+00 2.119047e-02 -7.184439e-03 -2.931630e+00 1.622452e-02 -9.473503e-05 -2.589082e-02 4.965955e-03
100            -7.083813e-03 -2.918202e+00 4.188816e-03 -6.993793e-03 -2.893268e+00 -2.336796e-04 -9.002002e-05 -2.493387e-02 4.422495e-03
101            -7.162053e-03 -2.985733e+00 -1.273733e-02 -7.072664e-03 -2.960991e+00 -1.692112e-02 -8.938918e-05 -2.474202e-02 4.183792e-03
102            -7.472760e-03 -3.139876e+00 -2.847975e-02 -7.383622e-03 -3.114473e+00 -3.219322e-02 -8.913828e-05 -2.540300e-02 3.713466e-03
103            -7.955245e-03 -3.350644e+00 -4.067848e-02 -7.863503e-03 -3.323927e+00 -4.405554e-02 -9.174126e-05 -2.671628e-02 3.377059e-03
104            -8.521815e-03 -3.583075e+00 -4.902508e-02 -8.426385e-03 -3.554541e+00 -5.203787e-02 -9.542933e-05 -2.853421e-02 3.012787e-03
105            -9.074665e-03 -3.799717e+00 -5.384652e-02 -8.974696e-03 -3.769080e+00 -5.653766e-02 -9.996898e-05 -3.063765e-02 2.691139e-03
106            -9.513371e-03 -3.963131e+00 -5.575074e-02 -9.408986e-03 -3.930490e+00 -5.814149e-02 -1.043852e-04 -3.264125e-02 2.390742e-03
107            -9.752091e-03 -4.040912e+00 -5.497750e-02 -9.643727e-03 -4.006667e+00 -5.716899e-02 -1.083639e-04 -3.424490e-02 2.191488e-03
108            -9.740260e-03 -4.015223e+00 -5.182683e-02 -9.629799e-03 -3.980065e+00 -5.381946e-02 -1.104610e-04 -3.515841e-02 1.992630e-03
109            -9.453246e-03 -3.876875e+00 -4.549216e-02 -9.342382e-03 -3.841680e+00 -4.739915e-02 -1.108641e-04 -3.519439e-02 1.906988e-03
110            -8.943076e-03 -3.650455e+00 -3.728022e-02 -8.834382e-03 -3.616190e+00 -3.911124e-02 -1.086944e-04 -3.426586e-02 1.831011e-03
111            -8.312820e-03 -3.381579e+00 -2.923005e-02 -8.208022e-03 -3.348982e+00 -3.105871e-02 -1.047982e-04 -3.259752e-02 1.828659e-03
112            -7.698274e-03 -3.129304e+00 -2.387762e-02 -7.598485e-03 -3.098693e+00 -2.570429e-02 -9.978852e-05 -3.061171e-02 1.826671e-03
113            -7.226718e-03 -2.946206e+00 -2.317358e-02 -7.131722e-03 -2.917391e+00 -2.499836e-02 -9.499576e-05 -2.881536e-02 1.824780e-03
114            -6.991896e-03 -2.867923e+00 -2.737242e-02 -6.900579e-03 -2.840307e+00 -2.915696e-02 -9.131739e-05 -2.761545e-02 1.784535e-03
115            -7.031129e-03 -2.904103e+00 -3.481912e-02 -6.941516e-03 -2.876891e+00 -3.657215e-02 -8.961321e-05 -2.721217e-02 1.753028e-03
116            -7.322609e-03 -3.040256e+00 -4.343163e-02 -7.232670e-03 -3.012600e+00 -4.513835e-02 -8.993987e-05 -2.765565e-02 1.706727e-03
117            -7.803916e-03 -3.247254e+00 -5.127571e-02 -7.711704e-03 -3.218418e+00 -5.295181e-02 -9.221188e-05 -2.883570e-02 1.676106e-03
118            -8.393819e-03 -3.490495e+00 -5.713348e-02 -8.297778e-03 -3.459918e+00 -5.879081e-02 -9.604126e-05 -3.057649e-02 1.657334e-03
119            -8.997296e-03 -3.732040e+00 -6.060539e-02 -8.896433e-03 -3.699419e+00 -6.227951e-02 -1.008623e-04 -3.262166e-02 1.674126e-03
120            -9.515829e-03 -3.933328e+00 -6.183573e-02 -9.409904e-03 -3.898647e+00 -6.355550e-02 -1.059247e-04 -3.468186e-02 1.719771e-03
121            -9.857624e-03 -4.058500e+00 -6.078359e-02 -9.747334e-03 -4.022092e+00 -6.258222e-02 -1.102895e-04 -3.640805e-02 1.798625e-03
122            -9.952923e-03 -4.080051e+00 -5.710527e-02 -9.839804e-03 -4.042547e+00 -5.900031e-02 -1.131188e-04 -3.750408e-02 1.895047e-03
123            -9.773757e-03 -3.987275e+00 -5.032369e-02 -9.659933e-03 -3.949561e+00 -5.234605e-02 -1.138241e-04 -3.771433e-02 2.022361e-03
124            -9.342376e-03 -3.790465e+00 -4.056915e-02 -9.230131e-03 -3.753523e+00 -4.275410e-02 -1.122453e-04 -3.694235e-02 2.184957e-03
125            -8.738262e-03 -3.525756e+00 -2.956600e-02 -8.629836e-03 -3.490508e+00 -3.193324e-02 -1.084264e-04 -3.524750e-02 2.367237e-03
126            -8.079186e-03 -3.246148e+00 -1.983821e-02 -7.975990e-03 -3.213153e+00 -2.238571e-02 -1.031957e-04 -3.299512e-02 2.547505e-03
127            -7.500569e-03 -3.010638e+00 -1.387764e-02 -7.402988e-03 -2.979967e+00 -1.657737e-02 -9.758036e-05 -3.067013e-02 2.699735e-03
128            -7.115998e-03 -2.866538e+00 -1.339107e-02 -7.023377e-03 -2.837759e+00 -1.617365e-02 -9.262095e-05 -2.877820e-02 2.782580e-03
129            -6.993962e-03 -2.837450e+00 -1.752484e-02 -6.904713e-03 -2.809815e+00 -2.033595e-02 -8.924900e-05 -2.763479e-02 2.811112e-03
130            -7.144645e-03 -2.921273e+00 -2.440929e-02 -7.056758e-03 -2.893920e+00 -2.721063e-02 -8.788682e-05 -2.735311e-02 2.801342e-03
131            -7.524669e-03 -3.094758e+00 -3.190651e-02 -7.436132e-03 -3.066874e+00 -3.467419e-02 -8.853637e-05 -2.788424e-02 2.767678e-03
132            -8.060914e-03 -3.324774e+00 -3.833521e-02 -7.969893e-03 -3.295653e+00 -4.105411e-02 -9.102068e-05 -2.912096e-02 2.718894e-03
133            -8.661942e-03 -3.573345e+00 -4.288475e-02 -8.567097e-03 -3.542499e+00 -4.555234e-02 -9.484457e-05 -3.084625e-02 2.667589e-03
134            -9.228331e-03 -3.801020e+00 -4.547498e-02 -9.128940e-03 -3.768221e+00 -4.809303e-02 -9.939169e-05 -3.279906e-02 2.618046e-03
135            -9.661685e-03 -3.968877e+00 -4.602511e-02 -9.557846e-03 -3.934233e+00 -4.860501e-02 -1.038385e-04 -3.464367e-02 2.579900e-03
136            -9.878800e-03 -4.044076e+00 -4.430490e-02 -9.771329e-03 -4.007994e+00 -4.686427e-02 -1.074710e-04 -3.608232e-02 2.559371e-03
137            -9.827590e-03 -4.006099e+00 -3.973178e-02 -9.717999e-03 -3.969284e+00 -4.230038e-02 -1.095911e-04 -3.681428e-02 2.568601e-03
138            -9.504682e-03 -3.854057e+00 -3.173010e-02 -9.394966e-03 -3.817405e+00 -3.433908e-02 -1.097157e-04 -3.665203e-02 2.608975e-03
139            -8.962081e-03 -3.612182e+00 -2.126209e-02 -8.854461e-03 -3.576657e+00 -2.394221e-02 -1.076202e-04 -3.552494e-02 2.680121e-03
140            -8.300958e-03 -3.327172e+00 -1.075944e-02 -8.197336e-03 -3.293520e+00 -1.351251e-02 -1.036220e-04 -3.365205e-02 2.753073e-03
141            -7.652077e-03 -3.058073e+00 -3.244098e-03 -7.553478e-03 -3.026613e+00 -6.048263e-03 -9.859827e-05 -3.146008e-02 2.804165e-03
142            -7.144430e-03 -2.861170e+00 -1.503512e-03 -7.050704e-03 -2.831678e+00 -4.304903e-03 -9.372611e-05 -2.949242e-02 2.801391e-03
143            -6.873741e-03 -2.773537e+00 -5.761827e-03 -6.783704e-03 -2.745389e+00 -8.506158e-03 -9.003692e-05 -2.814749e-02 2.744330e-03
144            -6.883960e-03 -2.806393e+00 -1.403556e-02 -6.795687e-03 -2.778728e+00 -1.668321e-02 -8.827352e-05 -2.766433e-02 2.647658e-03
145            -7.160738e-03 -2.946012e+00 -2.363052e-02 -7.072118e-03 -2.917953e+00 -2.616562e-02 -8.862029e-05 -2.805908e-02 2.535103e-03
146            -7.645991e-03 -3.162842e+00 -3.219125e-02 -7.555064e-03 -3.133594e+00 -3.459992e-02 -9.092713e-05 -2.924880e-02 2.408673e-03
147            -8.256096e-03 -3.420143e+00 -3.828605e-02 -8.161334e-03 -3.389117e+00 -4.056918e-02 -9.476189e-05 -3.102564e-02 2.283127e-03
148            -8.893173e-03 -3.678399e+00 -4.161830e-02 -8.793497e-03 -3.645237e+00 -4.379204e-02 -9.967608e-05 -3.316203e-02 2.173748e-03
149            -9.453979e-03 -3.897349e+00 -4.237116e-02 -9.349048e-03 -3.862006e+00 -4.446473e-02 -1.049316e-04 -3.534226e-02 2.093572e-03
150            -9.842889e-03 -4.039529e+00 -4.053106e-02 -9.733164e-03 -4.002277e+00 -4.257174e-02 -1.097256e-04 -3.725291e-02 2.040680e-03
151            -9.984449e-03 -4.075817e+00 -3.590140e-02 -9.871248e-03 -4.037259e+00 -3.792149e-02 -1.132012e-04 -3.855831e-02 2.020088e-03
152            -9.845786e-03 -3.994223e+00 -2.803171e-02 -9.731047e-03 -3.955206e+00 -3.006483e-02 -1.147394e-04 -3.901615e-02 2.033121e-03
153            -9.442465e-03 -3.803048e+00 -1.685337e-02 -9.328509e-03 -3.764579e+00 -1.894141e-02 -1.139553e-04 -3.846829e-02 2.088038e-03
154            -8.851025e-03 -3.538094e+00 -4.154077e-03 -8.740059e-03 -3.501118e+00 -6.334173e-03 -1.109659e-04 -3.697666e-02 2.180096e-03
155            -8.186242e-03 -3.252168e+00 7.158051e-03 -8.079951e-03 -3.217335e+00 4.870316e-03 -1.062905e-04 -3.483366e-02 2.287735e-03
156            -7.582277e-03 -3.005570e+00 1.352707e-02 -7.481347e-03 -2.973026e+00 1.116011e-02 -1.009298e-04 -3.254394e-02 2.366964e-03
157            -7.156572e-03 -2.847862e+00 1.278441e-02 -7.060738e-03 -2.817264e+00 1.040924e-02 -9.583341e-05 -3.059736e-02 2.375176e-03
158            -6.986324e-03 -2.805775e+00 5.965629e-03 -6.894243e-03 -2.776404e+00 3.644088e-03 -9.208052e-05 -2.937119e-02 2.321541e-03
159            -7.092746e-03 -2.879821e+00 -4.256820e-03 -7.002446e-03 -2.850826e+00 -6.500086e-03 -9.029942e-05 -2.899423e-02 2.243266e-03
160            -7.445318e-03 -3.049309e+00 -1.483041e-02 -7.354677e-03 -3.019842e+00 -1.698149e-02 -9.064061e-05 -2.946764e-02 2.151086e-03
161            -7.973710e-03 -3.280294e+00 -2.339588e-02 -7.881000e-03 -3.249666e+00 -2.544503e-02 -9.271006e-05 -3.062813e-02 2.049147e-03
162            -8.587368e-03 -3.534558e+00 -2.898004e-02 -8.491221e-03 -3.502276e+00 -3.093562e-02 -9.614725e-05 -3.228205e-02 1.955579e-03
163            -9.183388e-03 -3.771887e+00 -3.162595e-02 -9.082994e-03 -3.737726e+00 -3.351632e-02 -1.003943e-04 -3.416127e-02 1.890371e-03
164            -9.661233e-03 -3.953284e+00 -3.143982e-02 -9.556524e-03 -3.917341e+00 -3.330221e-02 -1.047091e-04 -3.594266e-02 1.862392e-03
165            -9.933972e-03 -4.045121e+00 -2.837979e-02 -9.825678e-03 -4.007815e+00 -3.025829e-02 -1.082939e-04 -3.730560e-02 1.878498e-03
166            -9.944166e-03 -4.025356e+00 -2.211127e-02 -9.833712e-03 -3.987367e+00 -2.404479e-02 -1.104533e-04 -3.798855e-02 1.933519e-03
167            -9.680341e-03 -3.890589e+00 -1.218034e-02 -9.569740e-03 -3.852805e+00 -1.421125e-02 -1.106006e-04 -3.778349e-02 2.030913e-03
168            -9.183428e-03 -3.660963e+00 5.264613e-04 -9.074772e-03 -3.624306e+00 -1.645005e-03 -1.086561e-04 -3.665657e-02 2.171466e-03
169            -8.545063e-03 -3.380140e+00 1.339734e-02 -8.440214e-03 -3.345403e+00 1.104971e-02 -1.048487e-04 -3.473750e-02 2.347628e-03
170            -7.888669e-03 -3.105245e+00 2.280135e-02 -7.788697e-03 -3.072785e+00 2.028575e-02 -9.997216e-05 -3.245947e-02 2.515610e-03
171            -7.341936e-03 -2.892559e+00 2.545939e-02 -7.246980e-03 -2.862251e+00 2.283145e-02 -9.495586e-05 -3.030748e-02 2.627935e-03
172            -7.006428e-03 -2.781759e+00 2.065756e-02 -6.915587e-03 -2.753019e+00 1.800081e-02 -9.084123e-05 -2.873991e-02 2.656745e-03
173            -6.936530e-03 -2.787844e+00 1.051940e-02 -6.848070e-03 -2.759857e+00 7.884571e-03 -8.845985e-05 -2.798736e-02 2.634831e-03
174            -7.131672e-03 -2.901915e+00 -1.928896e-03 -7.043513e-03 -2.873798e+00 -4.511382e-03 -8.815912e-05 -2.811698e-02 2.582486e-03
175            -7.545762e-03 -3.097323e+00 -1.351727e-02 -7.455968e-03 -3.068291e+00 -1.603011e-02 -8.979428e-05 -2.903108e-02 2.512839e-03
176            -8.103783e-03 -3.339136e+00 -2.224590e-02 -8.010719e-03 -3.308572e+00 -2.468187e-02 -9.306449e-05 -3.056384e-02 2.435968e-03
177            -8.711450e-03 -3.588744e+00 -2.756122e-02 -8.614037e-03 -3.556274e+00 -2.993127e-02 -9.741358e-05 -3.247051e-02 2.370056e-03
178            -9.267996e-03 -3.807342e+00 -2.974804e-02 -9.165751e-03 -3.772855e+00 -3.207204e-02 -1.022454e-04 -3.448635e-02 2.323992e-03
179            -9.677089e-03 -3.958099e+00 -2.896591e-02 -9.570228e-03 -3.921821e+00 -3.128569e-02 -1.068618e-04 -3.627823e-02 2.319776e-03
180            -9.864200e-03 -4.012477e+00 -2.507040e-02 -9.753649e-03 -3.974917e+00 -2.742539e-02 -1.105506e-04 -3.756025e-02 2.354991e-03
181            -9.791521e-03 -3.956084e+00 -1.742027e-02 -9.678900e-03 -3.918009e+00 -1.985375e-02 -1.126203e-04 -3.807526e-02 2.433483e-03
182            -9.467397e-03 -3.794069e+00 -5.878646e-03 -9.354748e-03 -3.756371e+00 -8.425814e-03 -1.126492e-04 -3.769737e-02 2.547168e-03
183            -8.951593e-03 -3.555933e+00 7.909595e-03 -8.840988e-03 -3.519492e+00 5.211547e-03 -1.106052e-04 -3.644074e-02 2.698048e-03
184            -8.342743e-03 -3.290158e+00 2.036543e-02 -8.235768e-03 -3.255583e+00 1.750222e-02 -1.069749e-04 -3.457445e-02 2.863213e-03
185            -7.759807e-03 -3.052559e+00 2.737885e-02 -7.657252e-03 -3.020037e+00 2.437671e-02 -1.025548e-04 -3.252203e-02 3.002142e-03
186            -7.317397e-03 -2.891905e+00 2.638297e-02 -7.219065e-03 -2.861128e+00 2.332324e-02 -9.833193e-05 -3.077689e-02 3.059729e-03
187            -7.096827e-03 -2.835842e+00 1.831779e-02 -7.001791e-03 -2.806184e+00 1.529360e-02 -9.503609e-05 -2.965798e-02 3.024187e-03
188            -7.131908e-03 -2.888988e+00 5.947909e-03 -7.038602e-03 -2.859651e+00 3.030553e-03 -9.330571e-05 -2.933688e-02 2.917357e-03
189            -7.404595e-03 -3.035027e+00 -7.489530e-03 -7.311288e-03 -3.005250e+00 -1.026377e-02 -9.330692e-05 -2.977694e-02 2.774244e-03
190            -7.858530e-03 -3.244284e+00 -1.907621e-02 -7.763597e-03 -3.213424e+00 -2.168849e-02 -9.493346e-05 -3.085961e-02 2.612283e-03
191            -8.413482e-03 -3.481263e+00 -2.736545e-02 -8.315803e-03 -3.448893e+00 -2.980520e-02 -9.767895e-05 -3.236969e-02 2.439751e-03
192            -8.976495e-03 -3.708724e+00 -3.213504e-02 -8.875318e-03 -3.674632e+00 -3.441800e-02 -1.011778e-04 -3.409216e-02 2.282960e-03
193            -9.450986e-03 -3.889659e+00 -3.358597e-02 -9.346156e-03 -3.853919e+00 -3.575401e-02 -1.048302e-04 -3.574008e-02 2.168041e-03
194            -9.751841e-03 -3.992223e+00 -3.194619e-02 -9.643883e-03 -3.955176e+00 -3.404142e-02 -1.079579e-04 -3.704727e-02 2.095230e-03
195            -9.818972e-03 -3.994188e+00 -2.691294e-02 -9.709044e-03 -3.956463e+00 -2.899211e-02 -1.099277e-04 -3.772555e-02 2.079171e-03
196            -9.635552e-03 -3.889895e+00 -1.782553e-02 -9.525193e-03 -3.852277e+00 -1.995112e-02 -1.103596e-04 -3.761843e-02 2.125591e-03
197            -9.229079e-03 -3.693172e+00 -4.923431e-03 -9.120146e-03 -3.656525e+00 -7.154446e-03 -1.089326e-04 -3.664737e-02 2.231015e-03
198            -8.675577e-03 -3.441525e+00 9.224418e-03 -8.569807e-03 -3.406579e+00 6.849201e-03 -1.057705e-04 -3.494675e-02 2.375217e-03
199            -8.077926e-03 -3.185654e+00 2.049258e-02 -7.976540e-03 -3.152813e+00 1.796590e-02 -1.013866e-04 -3.284112e-02 2.526676e-03
200            -7.548855e-03 -2.978045e+00 2.473664e-02 -7.452140e-03 -2.947248e+00 2.210392e-02 -9.671569e-05 -3.079696e-02 2.632716e-03
201            -7.187197e-03 -2.857939e+00 2.075520e-02 -7.094511e-03 -2.828726e+00 1.808709e-02 -9.268551e-05 -2.921341e-02 2.668105e-03
202            -7.056906e-03 -2.843114e+00 1.057496e-02 -6.966866e-03 -2.814746e+00 7.946393e-03 -9.003919e-05 -2.836813e-02 2.628563e-03
203            -7.172037e-03 -2.929166e+00 -2.667457e-03 -7.082961e-03 -2.900849e+00 -5.206511e-03 -8.907640e-05 -2.831691e-02 2.539054e-03
204            -7.501792e-03 -3.094693e+00 -1.564648e-02 -7.411791e-03 -3.065673e+00 -1.807509e-02 -9.000050e-05 -2.902015e-02 2.428610e-03
205            -7.980823e-03 -3.308230e+00 -2.601788e-02 -7.888261e-03 -3.277923e+00 -2.833994e-02 -9.256182e-05 -3.030661e-02 2.322056e-03
206            -8.525521e-03 -3.534683e+00 -3.284319e-02 -8.429103e-03 -3.502687e+00 -3.507871e-02 -9.641770e-05 -3.199576e-02 2.235519e-03
207            -9.042992e-03 -3.737816e+00 -3.611270e-02 -8.942097e-03 -3.703984e+00 -3.828857e-02 -1.008947e-04 -3.383209e-02 2.175877e-03
208            -9.443207e-03 -3.883335e+00 -3.607911e-02 -9.337997e-03 -3.847802e+00 -3.821524e-02 -1.052104e-04 -3.553315e-02 2.136132e-03
209            -9.651615e-03 -3.943632e+00 -3.276679e-02 -9.542944e-03 -3.906837e+00 -3.489961e-02 -1.086710e-04 -3.679584e-02 2.132817e-03
210            -9.624805e-03 -3.903554e+00 -2.585294e-02 -9.513915e-03 -3.866163e+00 -2.804054e-02 -1.108895e-04 -3.739159e-02 2.187601e-03
211            -9.364265e-03 -3.765308e+00 -1.479747e-02 -9.252798e-03 -3.728137e+00 -1.710708e-02 -1.114669e-04 -3.717174e-02 2.309608e-03
212            -8.918931e-03 -3.552823e+00 -6.632213e-04 -8.808618e-03 -3.516666e+00 -3.150726e-03 -1.103137e-04 -3.615691e-02 2.487505e-03
213            -8.375359e-03 -3.309175e+00 1.316462e-02 -8.267851e-03 -3.274631e+00 1.048010e-02 -1.075077e-04 -3.454372e-02 2.684523e-03
214            -7.838005e-03 -3.085701e+00 2.202013e-02 -7.734241e-03 -3.052967e+00 1.916767e-02 -1.037635e-04 -3.273439e-02 2.852458e-03