# Force       
# CofR        : (-1.000000e+01 0.000000e+00 0.000000e+00)
#
# Time        	total_x total_y total_z	pressure_x pressure_y pressure_z	viscous_x viscous_y viscous_z
1              9.497519e+01 -2.596184e-03 2.172151e+01 9.480140e+01 -2.595923e-03 2.172320e+01 1.737894e-01 -2.606695e-07 -1.691935e-03
2              2.185221e+01 5.389182e-02 5.728096e+00 2.665276e+01 5.343076e-02 5.920995e+00 -4.800550e+00 4.610565e-04 -1.928993e-01
3              1.708069e+02 5.197846e-01 -5.419319e+00 1.717573e+02 5.188329e-01 -5.340934e+00 -9.503849e-01 9.516677e-04 -7.838483e-02
4              3.166546e+01 2.984411e-01 -1.585603e+01 3.193322e+01 2.985817e-01 -1.583779e+01 -2.677545e-01 -1.406691e-04 -1.823703e-02
5              5.081034e+00 1.801504e-01 -3.963034e+00 5.151519e+00 1.798049e-01 -3.979182e+00 -7.048475e-02 3.454659e-04 1.614768e-02
6              6.586989e+00 1.274574e-01 5.593778e+00 6.552082e+00 1.270793e-01 5.564480e+00 3.490764e-02 3.780575e-04 2.929854e-02
7              8.829397e+00 1.641364e-02 9.120004e+00 8.677575e+00 1.626819e-02 9.075219e+00 1.518220e-01 1.454490e-04 4.478471e-02
8              8.403296e+00 6.574177e-02 6.507169e+00 8.202848e+00 6.545870e-02 6.451823e+00 2.004486e-01 2.830781e-04 5.534605e-02
9              6.368327e+00 7.641051e-02 2.770692e+00 6.130864e+00 7.336640e-02 2.725550e+00 2.374628e-01 3.044111e-03 4.514165e-02
10             3.867968e+00 7.253670e-02 -1.470880e+00 3.669665e+00 6.946934e-02 -1.493525e+00 1.983028e-01 3.067358e-03 2.264462e-02
11             2.479718e+00 2.112976e-02 -4.454426e+00 2.278273e+00 1.863538e-02 -4.466024e+00 2.014451e-01 2.494376e-03 1.159770e-02
12             1.496215e+00 -4.192855e-02 -6.299544e+00 1.344651e+00 -4.392287e-02 -6.301321e+00 1.515636e-01 1.994319e-03 1.776725e-03
13             1.099495e+00 -1.940409e-01 -6.908845e+00 9.581751e-01 -1.970307e-01 -6.910186e+00 1.413196e-01 2.989814e-03 1.340838e-03
14             6.352091e-01 -3.047919e-01 -6.790625e+00 5.293128e-01 -3.098769e-01 -6.786714e+00 1.058963e-01 5.085006e-03 -3.911490e-03
15             5.692542e-01 -3.621491e-01 -6.152974e+00 4.724429e-01 -3.672799e-01 -6.141602e+00 9.681125e-02 5.130746e-03 -1.137180e-02
16             6.251765e-01 -3.976948e-01 -5.345163e+00 5.453991e-01 -4.029210e-01 -5.329880e+00 7.977734e-02 5.226159e-03 -1.528331e-02
17             6.481042e-01 -3.830011e-01 -4.681701e+00 5.821268e-01 -3.895944e-01 -4.664160e+00 6.597741e-02 6.593281e-03 -1.754173e-02
18             5.881378e-01 -4.295865e-01 -4.148610e+00 5.371849e-01 -4.347107e-01 -4.132400e+00 5.095289e-02 5.124211e-03 -1.620994e-02
19             4.688056e-01 -4.825853e-01 -3.652727e+00 4.235383e-01 -4.873714e-01 -3.637129e+00 4.526733e-02 4.786108e-03 -1.559795e-02
20             2.591544e-01 -5.281765e-01 -3.044503e+00 2.250598e-01 -5.329934e-01 -3.030069e+00 3.409459e-02 4.816837e-03 -1.443419e-02
21             1.070888e-01 -5.244131e-01 -2.177515e+00 7.753039e-02 -5.291780e-01 -2.165729e+00 2.955838e-02 4.764914e-03 -1.178573e-02
22             4.548063e-02 -5.116494e-01 -1.202254e+00 2.226032e-02 -5.164854e-01 -1.193019e+00 2.322031e-02 4.835961e-03 -9.235455e-03
23             1.476813e-01 -4.746793e-01 -4.926258e-01 1.280787e-01 -4.781431e-01 -4.864720e-01 1.960252e-02 3.463774e-03 -6.153729e-03
24             2.510419e-01 -4.224962e-01 -9.156609e-02 2.353197e-01 -4.265608e-01 -8.729618e-02 1.572221e-02 4.064602e-03 -4.269908e-03
25             3.111224e-01 -3.336779e-01 5.351917e-02 2.982267e-01 -3.371952e-01 5.603823e-02 1.289568e-02 3.517309e-03 -2.519065e-03
26             2.729560e-01 -1.746864e-01 6.205086e-02 2.626868e-01 -1.787982e-01 6.328387e-02 1.026913e-02 4.111738e-03 -1.233013e-03
27             2.143908e-01 2.880100e-02 3.251154e-02 2.050756e-01 2.446351e-02 3.296929e-02 9.315265e-03 4.337490e-03 -4.577416e-04
28             1.627719e-01 2.100561e-01 -1.602663e-03 1.566068e-01 2.046983e-01 -1.236130e-03 6.165194e-03 5.357764e-03 -3.665336e-04
29             1.501917e-01 3.030293e-01 -4.092009e-02 1.441236e-01 2.975183e-01 -4.023150e-02 6.068091e-03 5.511051e-03 -6.885925e-04
30             1.513260e-01 3.176258e-01 -5.135994e-02 1.465438e-01 3.109848e-01 -4.970009e-02 4.782254e-03 6.640983e-03 -1.659855e-03
31             1.600314e-01 2.634602e-01 -4.447536e-02 1.547909e-01 2.564865e-01 -4.207748e-02 5.240530e-03 6.973715e-03 -2.397877e-03
32             1.746012e-01 1.734131e-01 -3.605041e-02 1.690903e-01 1.662480e-01 -3.298546e-02 5.510856e-03 7.165128e-03 -3.064954e-03
33             1.896389e-01 7.887910e-02 -3.186601e-02 1.830035e-01 7.232895e-02 -2.846588e-02 6.635431e-03 6.550154e-03 -3.400122e-03
34             1.963398e-01 3.595570e-03 -2.332853e-02 1.892037e-01 -2.176624e-03 -1.963279e-02 7.136142e-03 5.772195e-03 -3.695738e-03
35             2.021673e-01 -5.705158e-02 -1.775845e-02 1.935009e-01 -6.151378e-02 -1.374886e-02 8.666461e-03 4.462200e-03 -4.009591e-03
36             2.039392e-01 -1.128930e-01 -1.404164e-02 1.943192e-01 -1.158447e-01 -9.996043e-03 9.619964e-03 2.951761e-03 -4.045600e-03
37             2.173291e-01 -1.660624e-01 -1.253953e-02 2.062365e-01 -1.676226e-01 -8.319157e-03 1.109259e-02 1.560233e-03 -4.220374e-03
38             2.466926e-01 -2.251884e-01 -1.514985e-02 2.343113e-01 -2.250295e-01 -1.072518e-02 1.238132e-02 -1.589568e-04 -4.424664e-03
39             2.936092e-01 -2.778610e-01 -1.270176e-02 2.793654e-01 -2.765017e-01 -8.056320e-03 1.424382e-02 -1.359332e-03 -4.645441e-03
40             3.517217e-01 -3.152543e-01 5.545134e-04 3.360435e-01 -3.125488e-01 5.257597e-03 1.567828e-02 -2.705422e-03 -4.703083e-03
41             4.102973e-01 -3.280828e-01 2.869218e-02 3.929951e-01 -3.244442e-01 3.329798e-02 1.730217e-02 -3.638663e-03 -4.605804e-03
42             4.593242e-01 -3.213669e-01 7.233353e-02 4.407424e-01 -3.167873e-01 7.670086e-02 1.858181e-02 -4.579571e-03 -4.367324e-03
43             4.978273e-01 -2.947804e-01 1.265298e-01 4.778782e-01 -2.895042e-01 1.305442e-01 1.994907e-02 -5.276226e-03 -4.014362e-03
44             5.230942e-01 -2.523384e-01 1.851704e-01 5.020411e-01 -2.465428e-01 1.887538e-01 2.105311e-02 -5.795650e-03 -3.583433e-03
45             5.405666e-01 -1.941731e-01 2.464450e-01 5.181723e-01 -1.881262e-01 2.495095e-01 2.239428e-02 -6.046913e-03 -3.064463e-03
46             5.445076e-01 -1.322083e-01 3.026152e-01 5.209338e-01 -1.261777e-01 3.050467e-01 2.357382e-02 -6.030537e-03 -2.431507e-03
47             5.390950e-01 -6.657991e-02 3.489263e-01 5.143837e-01 -6.087805e-02 3.506584e-01 2.471123e-02 -5.701860e-03 -1.732168e-03
48             5.259199e-01 2.009250e-03 3.837855e-01 4.999732e-01 7.192807e-03 3.847883e-01 2.594667e-02 -5.183558e-03 -1.002838e-03
49             5.066605e-01 7.230859e-02 4.077690e-01 4.795092e-01 7.670075e-02 4.080636e-01 2.715134e-02 -4.392158e-03 -2.946058e-04
50             4.851747e-01 1.407685e-01 4.236352e-01 4.568000e-01 1.442345e-01 4.232572e-01 2.837472e-02 -3.465997e-03 3.780688e-04
51             4.634700e-01 2.021469e-01 4.298040e-01 4.339325e-01 2.045081e-01 4.288688e-01 2.953746e-02 -2.361200e-03 9.351725e-04
52             4.432939e-01 2.522070e-01 4.275319e-01 4.126980e-01 2.534249e-01 4.262098e-01 3.059586e-02 -1.217932e-03 1.322121e-03
53             4.254775e-01 2.867229e-01 4.183125e-01 3.938432e-01 2.867878e-01 4.166757e-01 3.163427e-02 -6.484794e-05 1.636795e-03
54             4.095927e-01 3.039771e-01 4.044433e-01 3.770149e-01 3.030871e-01 4.026513e-01 3.257789e-02 8.899588e-04 1.791966e-03
55             3.959688e-01 3.035784e-01 3.878206e-01 3.623283e-01 3.019610e-01 3.859108e-01 3.364042e-02 1.617406e-03 1.909811e-03
56             3.847555e-01 2.858887e-01 3.685856e-01 3.500208e-01 2.837825e-01 3.666324e-01 3.473470e-02 2.106223e-03 1.953248e-03
57             3.737614e-01 2.573381e-01 3.497764e-01 3.378280e-01 2.549974e-01 3.478270e-01 3.593332e-02 2.340724e-03 1.949413e-03
58             3.630828e-01 2.219095e-01 3.324636e-01 3.259517e-01 2.194930e-01 3.305360e-01 3.713104e-02 2.416542e-03 1.927549e-03
59             3.524178e-01 1.830173e-01 3.172678e-01 3.140420e-01 1.806808e-01 3.153672e-01 3.837579e-02 2.336496e-03 1.900621e-03
60             3.418617e-01 1.436899e-01 3.042742e-01 3.022549e-01 1.415176e-01 3.023997e-01 3.960686e-02 2.172262e-03 1.874555e-03
61             3.318983e-01 1.059057e-01 2.933438e-01 2.910728e-01 1.039597e-01 2.914887e-01 4.082549e-02 1.946045e-03 1.855153e-03
62             3.230000e-01 7.119995e-02 2.848100e-01 2.809517e-01 6.951133e-02 2.829663e-01 4.204828e-02 1.688620e-03 1.843701e-03
63             3.155754e-01 4.049558e-02 2.788961e-01 2.723275e-01 3.905810e-02 2.770491e-01 4.324783e-02 1.437487e-03 1.846941e-03
64             3.100665e-01 1.352706e-02 2.763920e-01 2.655742e-01 1.235865e-02 2.745007e-01 4.449227e-02 1.168403e-03 1.891356e-03
65             3.059207e-01 -7.989041e-03 2.758385e-01 2.602016e-01 -8.913453e-03 2.738949e-01 4.571902e-02 9.244115e-04 1.943667e-03
66             3.031244e-01 -2.421045e-02 2.769504e-01 2.561683e-01 -2.492637e-02 2.749429e-01 4.695618e-02 7.159181e-04 2.007511e-03
67             3.013544e-01 -3.554660e-02 2.788708e-01 2.531878e-01 -3.608538e-02 2.768100e-01 4.816658e-02 5.387740e-04 2.060768e-03
68             3.001624e-01 -4.243888e-02 2.806544e-01 2.507878e-01 -4.283796e-02 2.785456e-01 4.937465e-02 3.990814e-04 2.108860e-03
69             2.992206e-01 -4.564848e-02 2.814334e-01 2.486536e-01 -4.594267e-02 2.793003e-01 5.056699e-02 2.941912e-04 2.133104e-03
70             2.983152e-01 -4.594541e-02 2.808109e-01 2.465722e-01 -4.616127e-02 2.786611e-01 5.174303e-02 2.158617e-04 2.149844e-03
71             2.974001e-01 -4.415876e-02 2.788601e-01 2.445010e-01 -4.431623e-02 2.767221e-01 5.289906e-02 1.574720e-04 2.137975e-03
72             2.965076e-01 -4.091091e-02 2.760588e-01 2.424696e-01 -4.103054e-02 2.739398e-01 5.403797e-02 1.196303e-04 2.119016e-03
73             2.956758e-01 -3.680052e-02 2.734048e-01 2.405343e-01 -3.689600e-02 2.713199e-01 5.514155e-02 9.547270e-05 2.084855e-03
74             2.950522e-01 -3.225647e-02 2.719547e-01 2.388320e-01 -3.234108e-02 2.698980e-01 5.622018e-02 8.461212e-05 2.056672e-03
75             2.946969e-01 -2.767477e-02 2.724180e-01 2.374420e-01 -2.775478e-02 2.703853e-01 5.725489e-02 8.000842e-05 2.032673e-03
76             2.946140e-01 -2.329795e-02 2.749644e-01 2.363584e-01 -2.338120e-02 2.729358e-01 5.825566e-02 8.325435e-05 2.028620e-03
77             2.947336e-01 -1.935802e-02 2.792001e-01 2.355221e-01 -1.944470e-02 2.771576e-01 5.921142e-02 8.667685e-05 2.042487e-03
78             2.949738e-01 -1.594667e-02 2.842138e-01 2.348488e-01 -1.604195e-02 2.821442e-01 6.012500e-02 9.527734e-05 2.069522e-03
79             2.951950e-01 -1.315825e-02 2.887735e-01 2.341986e-01 -1.325670e-02 2.866702e-01 6.099637e-02 9.845181e-05 2.103283e-03
80             2.954475e-01 -1.126768e-02 2.908219e-01 2.336128e-01 -1.136297e-02 2.886878e-01 6.183471e-02 9.528928e-05 2.134042e-03
81             2.954530e-01 -9.793385e-03 2.908017e-01 2.328139e-01 -9.874395e-03 2.886481e-01 6.263902e-02 8.100977e-05 2.153606e-03
82             2.952902e-01 -8.662318e-03 2.872134e-01 2.318829e-01 -8.723136e-03 2.850610e-01 6.340723e-02 6.081727e-05 2.152367e-03
83             2.949552e-01 -7.774554e-03 2.795934e-01 2.308205e-01 -7.805447e-03 2.774691e-01 6.413473e-02 3.089293e-05 2.124357e-03
84             2.944010e-01 -7.032427e-03 2.683166e-01 2.295887e-01 -7.031801e-03 2.662476e-01 6.481229e-02 -6.260640e-07 2.068987e-03
85             2.933876e-01 -6.368139e-03 2.556254e-01 2.279650e-01 -6.331208e-03 2.536351e-01 6.542268e-02 -3.693043e-05 1.990312e-03
86             2.921868e-01 -5.913700e-03 2.419645e-01 2.262106e-01 -5.839537e-03 2.400694e-01 6.597626e-02 -7.416347e-05 1.895094e-03
87             2.907507e-01 -5.728798e-03 2.299499e-01 2.242734e-01 -5.609528e-03 2.281628e-01 6.647728e-02 -1.192698e-04 1.787049e-03
88             2.891075e-01 -5.824400e-03 2.219654e-01 2.221822e-01 -5.657355e-03 2.202853e-01 6.692531e-02 -1.670446e-04 1.680074e-03
89             2.872602e-01 -6.213815e-03 2.198576e-01 2.199413e-01 -5.994160e-03 2.182728e-01 6.731888e-02 -2.196559e-04 1.584825e-03
90             2.857431e-01 -6.774666e-03 2.246139e-01 2.180781e-01 -6.505658e-03 2.230972e-01 6.766496e-02 -2.690076e-04 1.516737e-03
91             2.848680e-01 -7.405428e-03 2.357386e-01 2.168954e-01 -7.091219e-03 2.342477e-01 6.797254e-02 -3.142087e-04 1.490864e-03
92             2.848744e-01 -7.955358e-03 2.516958e-01 2.166225e-01 -7.607972e-03 2.501894e-01 6.825193e-02 -3.473864e-04 1.506414e-03
93             2.858120e-01 -8.270747e-03 2.704019e-01 2.172988e-01 -7.900483e-03 2.688446e-01 6.851323e-02 -3.702642e-04 1.557309e-03
94             2.874743e-01 -8.234888e-03 2.894158e-01 2.187041e-01 -7.854854e-03 2.877887e-01 6.877019e-02 -3.800337e-04 1.627093e-03
95             2.895234e-01 -7.837989e-03 3.063432e-01 2.205061e-01 -7.459081e-03 3.046434e-01 6.901736e-02 -3.789084e-04 1.699790e-03
96             2.916750e-01 -7.133240e-03 3.190328e-01 2.224231e-01 -6.765622e-03 3.172729e-01 6.925184e-02 -3.676185e-04 1.759872e-03
97             2.937030e-01 -6.239351e-03 3.261487e-01 2.242301e-01 -5.887721e-03 3.243542e-01 6.947288e-02 -3.516302e-04 1.794476e-03
98             2.954318e-01 -5.262096e-03 3.269550e-01 2.257559e-01 -4.928897e-03 3.251592e-01 6.967584e-02 -3.331987e-04 1.795733e-03
99             2.967433e-01 -4.246228e-03 3.215637e-01 2.268840e-01 -3.932362e-03 3.198049e-01 6.985938e-02 -3.138662e-04 1.758868e-03
100            2.977893e-01 -3.180476e-03 3.110382e-01 2.277651e-01 -2.888163e-03 3.093548e-01 7.002418e-02 -2.923129e-04 1.683425e-03
101            2.987071e-01 -2.046680e-03 2.975815e-01 2.285368e-01 -1.777046e-03 2.960044e-01 7.017028e-02 -2.696333e-04 1.577113e-03
102            2.995961e-01 -8.451034e-04 2.841271e-01 2.293029e-01 -5.977629e-04 2.826691e-01 7.029322e-02 -2.473405e-04 1.458001e-03
103            3.006299e-01 3.656962e-04 2.736778e-01 2.302441e-01 5.929311e-04 2.723281e-01 7.038578e-02 -2.272349e-04 1.349685e-03
104            3.018218e-01 1.483567e-03 2.685523e-01 2.313804e-01 1.693709e-03 2.672782e-01 7.044141e-02 -2.101421e-04 1.274041e-03
105            3.032208e-01 2.420824e-03 2.697084e-01 2.327641e-01 2.618447e-03 2.684629e-01 7.045670e-02 -1.976232e-04 1.245545e-03
106            3.048439e-01 3.135457e-03 2.766079e-01 2.344086e-01 3.324730e-03 2.753408e-01 7.043527e-02 -1.892732e-04 1.267094e-03
107            3.065677e-01 3.630665e-03 2.875532e-01 2.361827e-01 3.814257e-03 2.862220e-01 7.038495e-02 -1.835917e-04 1.331185e-03
108            3.081791e-01 3.934695e-03 3.001953e-01 2.378649e-01 4.113717e-03 2.987713e-01 7.031415e-02 -1.790219e-04 1.424069e-03
109            3.094729e-01 4.092672e-03 3.120468e-01 2.392422e-01 4.267117e-03 3.105192e-01 7.023072e-02 -1.744459e-04 1.527640e-03
110            3.103000e-01 4.145160e-03 3.208671e-01 2.401591e-01 4.314317e-03 3.192419e-01 7.014088e-02 -1.691568e-04 1.625180e-03
111            3.106568e-01 4.129308e-03 3.244350e-01 2.406070e-01 4.292139e-03 3.227393e-01 7.004976e-02 -1.628303e-04 1.695685e-03
112            3.105001e-01 4.079198e-03 3.216013e-01 2.405392e-01 4.233899e-03 3.198773e-01 6.996094e-02 -1.547001e-04 1.724000e-03
113            3.099936e-01 4.043222e-03 3.124211e-01 2.401180e-01 4.187680e-03 3.107202e-01 6.987560e-02 -1.444572e-04 1.700944e-03
114            3.090782e-01 4.059633e-03 2.977952e-01 2.392807e-01 4.190783e-03 2.961688e-01 6.979752e-02 -1.311493e-04 1.626395e-03
115            3.079032e-01 4.179667e-03 2.806477e-01 2.381776e-01 4.293614e-03 2.791342e-01 6.972554e-02 -1.139473e-04 1.513506e-03
116            3.066338e-01 4.434882e-03 2.644854e-01 2.369773e-01 4.526173e-03 2.631012e-01 6.965646e-02 -9.129149e-05 1.384201e-03
117            3.054828e-01 4.822247e-03 2.525490e-01 2.358961e-01 4.884373e-03 2.512869e-01 6.958672e-02 -6.212614e-05 1.262109e-03
118            3.046313e-01 5.310319e-03 2.469238e-01 2.351171e-01 5.336016e-03 2.457583e-01 6.951424e-02 -2.569720e-05 1.165556e-03
119            3.041850e-01 5.858387e-03 2.481904e-01 2.347470e-01 5.840808e-03 2.470853e-01 6.943796e-02 1.757909e-05 1.105098e-03
120            3.041927e-01 6.431435e-03 2.553341e-01 2.348336e-01 6.364389e-03 2.542522e-01 6.935918e-02 6.704560e-05 1.081871e-03
121            3.044717e-01 6.994707e-03 2.663929e-01 2.351923e-01 6.874028e-03 2.653027e-01 6.927940e-02 1.206795e-04 1.090219e-03
122            3.047137e-01 7.519711e-03 2.788326e-01 2.355152e-01 7.344671e-03 2.777118e-01 6.919851e-02 1.750401e-04 1.120762e-03
123            3.047580e-01 7.960549e-03 2.907157e-01 2.356421e-01 7.733728e-03 2.895567e-01 6.911595e-02 2.268212e-04 1.158985e-03
124            3.044733e-01 8.280194e-03 3.004524e-01 2.354422e-01 8.006800e-03 2.992591e-01 6.903108e-02 2.733942e-04 1.193296e-03
125            3.038379e-01 8.462698e-03 3.064377e-01 2.348926e-01 8.150334e-03 3.052257e-01 6.894527e-02 3.123640e-04 1.212031e-03
126            3.028423e-01 8.509151e-03 3.077808e-01 2.339843e-01 8.168127e-03 3.065747e-01 6.885795e-02 3.410239e-04 1.206093e-03
127            3.016697e-01 8.436780e-03 3.042344e-01 2.329011e-01 8.078724e-03 3.030618e-01 6.876856e-02 3.580558e-04 1.172569e-03
128            3.005978e-01 8.274100e-03 2.964153e-01 2.319186e-01 7.909133e-03 2.953028e-01 6.867916e-02 3.649665e-04 1.112506e-03
129            2.998024e-01 8.016527e-03 2.861195e-01 2.312116e-01 7.652163e-03 2.850890e-01 6.859082e-02 3.643640e-04 1.030520e-03
130            2.993305e-01 7.635110e-03 2.760303e-01 2.308279e-01 7.276458e-03 2.750900e-01 6.850254e-02 3.586527e-04 9.402708e-04
131            2.992394e-01 7.094477e-03 2.690248e-01 2.308282e-01 6.746254e-03 2.681651e-01 6.841115e-02 3.482239e-04 8.597292e-04
132            2.996406e-01 6.371234e-03 2.673175e-01 2.313268e-01 6.038384e-03 2.665112e-01 6.831379e-02 3.328496e-04 8.062697e-04
133            3.005950e-01 5.477486e-03 2.718598e-01 2.323854e-01 5.165503e-03 2.710694e-01 6.820954e-02 3.119836e-04 7.903640e-04
134            3.020452e-01 4.427844e-03 2.820897e-01 2.339461e-01 4.141759e-03 2.812748e-01 6.809905e-02 2.860858e-04 8.149232e-04
135            3.038161e-01 3.226309e-03 2.961830e-01 2.358321e-01 2.970882e-03 2.953068e-01 6.798398e-02 2.554271e-04 8.762897e-04
136            3.056601e-01 1.902620e-03 3.116056e-01 2.377937e-01 1.682023e-03 3.106408e-01 6.786637e-02 2.205970e-04 9.648824e-04
137            3.073150e-01 5.222129e-04 3.256750e-01 2.395667e-01 3.394966e-04 3.246087e-01 6.774830e-02 1.827164e-04 1.066228e-03
138            3.085853e-01 -8.289845e-04 3.357543e-01 2.409534e-01 -9.718419e-04 3.345920e-01 6.763191e-02 1.428573e-04 1.162280e-03
139            3.092876e-01 -2.051941e-03 3.400483e-01 2.417687e-01 -2.155131e-03 3.388137e-01 6.751892e-02 1.031895e-04 1.234640e-03
140            3.092994e-01 -3.075253e-03 3.374502e-01 2.418881e-01 -3.140903e-03 3.361818e-01 6.741138e-02 6.564996e-05 1.268316e-03
141            3.087412e-01 -3.880016e-03 3.279990e-01 2.414298e-01 -3.911086e-03 3.267445e-01 6.731137e-02 3.107049e-05 1.254537e-03
142            3.080055e-01 -4.455440e-03 3.131187e-01 2.407845e-01 -4.455723e-03 3.119250e-01 6.722106e-02 2.835669e-07 1.193688e-03
143            3.071868e-01 -4.803163e-03 2.957778e-01 2.400472e-01 -4.776878e-03 2.946801e-01 6.713953e-02 -2.628476e-05 1.097715e-03
144            3.063823e-01 -4.930253e-03 2.796510e-01 2.393204e-01 -4.882200e-03 2.786618e-01 6.706193e-02 -4.805322e-05 9.892539e-04
145            3.057815e-01 -4.845756e-03 2.681841e-01 2.387979e-01 -4.780806e-03 2.672900e-01 6.698362e-02 -6.495069e-05 8.940202e-04
146            3.055777e-01 -4.603083e-03 2.636517e-01 2.386767e-01 -4.526347e-03 2.628190e-01 6.690102e-02 -7.673562e-05 8.326509e-04
147            3.058557e-01 -4.261128e-03 2.666810e-01 2.390432e-01 -4.177043e-03 2.658641e-01 6.681248e-02 -8.408516e-05 8.169267e-04
148            3.066249e-01 -3.855674e-03 2.762224e-01 2.399061e-01 -3.767943e-03 2.753733e-01 6.671879e-02 -8.773070e-05 8.491196e-04
149            3.077112e-01 -3.405695e-03 2.900568e-01 2.410891e-01 -3.317608e-03 2.891333e-01 6.662205e-02 -8.808622e-05 9.235110e-04
150            3.088323e-01 -2.914673e-03 3.055605e-01 2.423089e-01 -2.829504e-03 3.045320e-01 6.652338e-02 -8.516902e-05 1.028559e-03
151            3.096793e-01 -2.386400e-03 3.198429e-01 2.432528e-01 -2.307158e-03 3.186958e-01 6.642650e-02 -7.924248e-05 1.147117e-03
152            3.100792e-01 -1.838484e-03 3.301678e-01 2.437450e-01 -1.767389e-03 3.289094e-01 6.633417e-02 -7.109465e-05 1.258453e-03
153            3.099277e-01 -1.299052e-03 3.342750e-01 2.436782e-01 -1.237510e-03 3.329339e-01 6.624945e-02 -6.154201e-05 1.341119e-03
154            3.092582e-01 -8.030968e-04 3.308523e-01 2.430825e-01 -7.514228e-04 3.294747e-01 6.617566e-02 -5.167397e-05 1.377596e-03
155            3.081421e-01 -3.873589e-04 3.198726e-01 2.420268e-01 -3.451621e-04 3.185145e-01 6.611525e-02 -4.219676e-05 1.358076e-03
156            3.068259e-01 -4.959647e-05 3.028921e-01 2.407567e-01 -1.565165e-05 3.016086e-01 6.606921e-02 -3.394482e-05 1.283446e-03
157            3.053489e-01 2.319774e-04 2.831457e-01 2.393144e-01 2.587348e-04 2.819781e-01 6.603450e-02 -2.675741e-05 1.167571e-03
158            3.038512e-01 4.815339e-04 2.647072e-01 2.378470e-01 5.019939e-04 2.636709e-01 6.600417e-02 -2.046001e-05 1.036278e-03
159            3.025800e-01 7.121294e-04 2.515549e-01 2.366086e-01 7.266945e-04 2.506361e-01 6.597133e-02 -1.456511e-05 9.187591e-04
160            3.018110e-01 9.183484e-04 2.463431e-01 2.358801e-01 9.273917e-04 2.455047e-01 6.593085e-02 -9.043261e-06 8.383574e-04
161            3.016733e-01 1.089639e-03 2.499268e-01 2.357925e-01 1.093488e-03 2.491187e-01 6.588081e-02 -3.848947e-06 8.080913e-04
162            3.021923e-01 1.222081e-03 2.612015e-01 2.363700e-01 1.221271e-03 2.603707e-01 6.582230e-02 8.094556e-07 8.307901e-04
163            3.031900e-01 1.315026e-03 2.777073e-01 2.374319e-01 1.309947e-03 2.768068e-01 6.575807e-02 5.078653e-06 9.005473e-04
164            3.043229e-01 1.371679e-03 2.963268e-01 2.386319e-01 1.362858e-03 2.953224e-01 6.569104e-02 8.821074e-06 1.004399e-03
165            3.053707e-01 1.398231e-03 3.138782e-01 2.397459e-01 1.386174e-03 3.127542e-01 6.562474e-02 1.205763e-05 1.123964e-03
166            3.061932e-01 1.396417e-03 3.274690e-01 2.406304e-01 1.381724e-03 3.262312e-01 6.556283e-02 1.469327e-05 1.237822e-03
167            3.066532e-01 1.364456e-03 3.347247e-01 2.411449e-01 1.347971e-03 3.334001e-01 6.550837e-02 1.648522e-05 1.324617e-03
168            3.065865e-01 1.302290e-03 3.342313e-01 2.411228e-01 1.284771e-03 3.328638e-01 6.546375e-02 1.751873e-05 1.367485e-03
169            3.060683e-01 1.207177e-03 3.257513e-01 2.406371e-01 1.189272e-03 3.243942e-01 6.543115e-02 1.790519e-05 1.357059e-03
170            3.054266e-01 1.083353e-03 3.105115e-01 2.400140e-01 1.065655e-03 3.092183e-01 6.541256e-02 1.769713e-05 1.293278e-03
171            3.048195e-01 9.364301e-04 2.915884e-01 2.394129e-01 9.195536e-04 2.904005e-01 6.540667e-02 1.687645e-05 1.187929e-03
172            3.043404e-01 7.748907e-04 2.732050e-01 2.389327e-01 7.593807e-04 2.721400e-01 6.540764e-02 1.551004e-05 1.065003e-03
173            3.041189e-01 6.145833e-04 2.596208e-01 2.387109e-01 6.006779e-04 2.586671e-01 6.540798e-02 1.390536e-05 9.537117e-04
174            3.043320e-01 4.673213e-04 2.538192e-01 2.389304e-01 4.549769e-04 2.529412e-01 6.540162e-02 1.234438e-05 8.779217e-04
175            3.050311e-01 3.363844e-04 2.569121e-01 2.396471e-01 3.253854e-04 2.560606e-01 6.538399e-02 1.099892e-05 8.514817e-04
176            3.062189e-01 2.226095e-04 2.679949e-01 2.408649e-01 2.127124e-04 2.671169e-01 6.535395e-02 9.897139e-06 8.780648e-04
177            3.077660e-01 1.256720e-04 2.847303e-01 2.424530e-01 1.165954e-04 2.837772e-01 6.531296e-02 9.076525e-06 9.531316e-04
178            3.093909e-01 4.939337e-05 3.039917e-01 2.441273e-01 4.100851e-05 3.029266e-01 6.526361e-02 8.384859e-06 1.065154e-03
179            3.108332e-01 -1.891751e-06 3.224469e-01 2.456233e-01 -9.783829e-06 3.212506e-01 6.520983e-02 7.892078e-06 1.196278e-03
180            3.119500e-01 -2.782687e-05 3.369559e-01 2.467929e-01 -3.508978e-05 3.356320e-01 6.515708e-02 7.262903e-06 1.323913e-03
181            3.126343e-01 -3.272188e-05 3.448106e-01 2.475244e-01 -3.887826e-05 3.433859e-01 6.510994e-02 6.156381e-06 1.424712e-03
182            3.128656e-01 -2.497407e-05 3.442239e-01 2.477923e-01 -2.923377e-05 3.427454e-01 6.507324e-02 4.259696e-06 1.478433e-03
183            3.127119e-01 -1.682341e-05 3.348702e-01 2.476612e-01 -1.819348e-05 3.333971e-01 6.505064e-02 1.370065e-06 1.473030e-03
184            3.124123e-01 -1.496653e-05 3.182489e-01 2.473681e-01 -1.195147e-05 3.168410e-01 6.504415e-02 -3.015068e-06 1.407914e-03
185            3.119291e-01 -2.115235e-05 2.978336e-01 2.468786e-01 -1.191794e-05 2.965362e-01 6.505054e-02 -9.234416e-06 1.297431e-03
186            3.113410e-01 -2.729444e-05 2.780011e-01 2.462794e-01 -1.020222e-05 2.768320e-01 6.506166e-02 -1.709222e-05 1.169063e-03
187            3.108086e-01 -2.239183e-05 2.630107e-01 2.457407e-01 3.923185e-06 2.619560e-01 6.506787e-02 -2.631502e-05 1.054750e-03
188            3.105518e-01 -1.136700e-06 2.557582e-01 2.454902e-01 3.544404e-05 2.547784e-01 6.506164e-02 -3.658074e-05 9.798283e-04
189            3.107326e-01 3.505610e-05 2.572217e-01 2.456922e-01 8.327554e-05 2.562641e-01 6.504042e-02 -4.821944e-05 9.576394e-04
190            3.113700e-01 8.177292e-05 2.664963e-01 2.463650e-01 1.431746e-04 2.655057e-01 6.500506e-02 -6.140166e-05 9.906152e-04
191            3.123225e-01 1.342544e-04 2.813273e-01 2.473636e-01 2.103325e-04 2.802549e-01 6.495894e-02 -7.607806e-05 1.072397e-03
192            3.132677e-01 1.941718e-04 2.986933e-01 2.483618e-01 2.859505e-04 2.975034e-01 6.490595e-02 -9.177876e-05 1.189908e-03
193            3.139072e-01 2.677538e-04 3.153648e-01 2.490569e-01 3.751746e-04 3.140399e-01 6.485032e-02 -1.074207e-04 1.324908e-03
194            3.140704e-01 3.562997e-04 3.282596e-01 2.492737e-01 4.780281e-04 3.268039e-01 6.479673e-02 -1.217284e-04 1.455736e-03
195            3.137381e-01 4.538211e-04 3.346542e-01 2.489875e-01 5.874130e-04 3.330952e-01 6.475062e-02 -1.335919e-04 1.558912e-03
196            3.130072e-01 5.508361e-04 3.326992e-01 2.482897e-01 6.932029e-04 3.310858e-01 6.471743e-02 -1.423668e-04 1.613370e-03
197            3.118806e-01 6.389280e-04 3.220127e-01 2.471788e-01 7.864429e-04 3.204080e-01 6.470180e-02 -1.475150e-04 1.604623e-03
198            3.104742e-01 7.225598e-04 3.041086e-01 2.457688e-01 8.713828e-04 3.025782e-01 6.470537e-02 -1.488230e-04 1.530331e-03
199            3.087891e-01 8.102653e-04 2.823667e-01 2.440640e-01 9.568157e-04 2.809630e-01 6.472509e-02 -1.465503e-04 1.403721e-03
200            3.070087e-01 9.153616e-04 2.612558e-01 2.422553e-01 1.056437e-03 2.600033e-01 6.475343e-02 -1.410753e-04 1.252471e-03
201            3.053649e-01 1.045067e-03 2.453582e-01 2.405829e-01 1.177432e-03 2.442475e-01 6.478201e-02 -1.323649e-04 1.110689e-03
202            3.041651e-01 1.195536e-03 2.380129e-01 2.393616e-01 1.316543e-03 2.370062e-01 6.480348e-02 -1.210070e-04 1.006759e-03
203            3.035849e-01 1.362493e-03 2.404637e-01 2.387704e-01 1.470291e-03 2.395073e-01 6.481450e-02 -1.077989e-04 9.564236e-04
204            3.036877e-01 1.550244e-03 2.518268e-01 2.388728e-01 1.643699e-03 2.508622e-01 6.481485e-02 -9.345430e-05 9.646006e-04
205            3.043453e-01 1.758165e-03 2.695930e-01 2.395392e-01 1.836537e-03 2.685662e-01 6.480613e-02 -7.837276e-05 1.026837e-03
206            3.051078e-01 1.985720e-03 2.903067e-01 2.403166e-01 2.048676e-03 2.891752e-01 6.479115e-02 -6.295589e-05 1.131418e-03
207            3.057993e-01 2.209593e-03 3.106362e-01 2.410283e-01 2.257522e-03 3.093742e-01 6.477098e-02 -4.792886e-05 1.261982e-03
208            3.063089e-01 2.395203e-03 3.271299e-01 2.415603e-01 2.428965e-03 3.257343e-01 6.474865e-02 -3.376215e-05 1.395604e-03
209            3.065479e-01 2.517247e-03 3.367289e-01 2.418195e-01 2.537753e-03 3.352223e-01 6.472848e-02 -2.050549e-05 1.506590e-03
210            3.063941e-01 2.569403e-03 3.372494e-01 2.416795e-01 2.577616e-03 3.356777e-01 6.471464e-02 -8.212943e-06 1.571691e-03
211            3.057938e-01 2.586930e-03 3.279295e-01 2.410810e-01 2.584060e-03 3.263556e-01 6.471282e-02 2.869899e-06 1.573922e-03
212            3.050105e-01 2.579939e-03 3.097981e-01 2.402842e-01 2.566686e-03 3.082903e-01 6.472629e-02 1.325356e-05 1.507744e-03
213            3.040387e-01 2.532314e-03 2.863621e-01 2.392857e-01 2.509698e-03 2.849776e-01 6.475298e-02 2.261641e-05 1.384481e-03
214            3.029294e-01 2.409099e-03 2.625992e-01 2.381447e-01 2.378959e-03 2.613673e-01 6.478475e-02 3.014022e-05 1.231923e-03
215            3.018167e-01 2.179256e-03 2.438068e-01 2.370045e-01 2.144388e-03 2.427197e-01 6.481220e-02 3.486778e-05 1.087076e-03
216            3.009814e-01 1.852414e-03 2.338931e-01 2.361535e-01 1.816094e-03 2.329117e-01 6.482786e-02 3.632089e-05 9.813762e-04
217            3.005671e-01 1.480915e-03 2.345006e-01 2.357381e-01 1.446296e-03 2.335685e-01 6.482901e-02 3.461912e-05 9.320555e-04
218            3.006385e-01 1.109571e-03 2.448292e-01 2.358223e-01 1.078878e-03 2.438853e-01 6.481624e-02 3.069372e-05 9.438825e-04
219            3.010421e-01 7.675302e-04 2.622068e-01 2.362484e-01 7.421993e-04 2.611962e-01 6.479371e-02 2.533093e-05 1.010658e-03
220            3.015000e-01 4.671832e-04 2.830606e-01 2.367345e-01 4.481229e-04 2.819417e-01 6.476548e-02 1.906030e-05 1.118925e-03
221            3.018289e-01 2.089704e-04 3.036647e-01 2.370946e-01 1.967337e-04 3.024147e-01 6.473435e-02 1.223676e-05 1.249940e-03
222            3.019897e-01 -5.383251e-06 3.205192e-01 2.372849e-01 -1.080704e-05 3.191396e-01 6.470473e-02 5.423791e-06 1.379623e-03