# Force       
# CofR        : (-1.000000e+01 0.000000e+00 0.000000e+00)
#
# Time        	total_x total_y total_z	pressure_x pressure_y pressure_z	viscous_x viscous_y viscous_z
1              1.443535e+02 4.826406e-03 1.950038e+01 1.441625e+02 4.846149e-03 1.950170e+01 1.909441e-01 -1.974277e-05 -1.324021e-03
2              3.310075e+01 1.086314e-01 6.147673e+00 4.011050e+01 1.085095e-01 6.076852e+00 -7.009749e+00 1.219141e-04 7.082081e-02
3              2.146482e+02 3.398942e-01 4.014231e+01 2.161570e+02 3.405375e-01 4.021886e+01 -1.508836e+00 -6.432636e-04 -7.654907e-02
4              3.357627e+01 3.299390e-01 1.522307e+01 3.403526e+01 3.295915e-01 1.525795e+01 -4.589902e-01 3.474996e-04 -3.488330e-02
5              -1.720772e+00 -2.436380e-02 8.624880e+00 -1.544209e+00 -2.491219e-02 8.641341e+00 -1.765636e-01 5.483886e-04 -1.646064e-02
6              1.392063e+00 7.686789e-02 7.114906e+00 1.421231e+00 7.499291e-02 7.135101e+00 -2.916884e-02 1.874976e-03 -2.019453e-02
7              6.750196e+00 9.753543e-02 8.062974e+00 6.649931e+00 9.540145e-02 8.084399e+00 1.002645e-01 2.133974e-03 -2.142424e-02
8              6.541326e+00 2.085127e-01 6.814336e+00 6.421869e+00 2.074637e-01 6.812968e+00 1.194572e-01 1.048978e-03 1.368148e-03
9              3.118322e+00 2.714080e-01 4.114837e+00 3.005491e+00 2.712689e-01 4.103209e+00 1.128313e-01 1.390231e-04 1.162852e-02
10             -3.432667e-01 2.467082e-01 -1.984758e-01 -3.840775e-01 2.454993e-01 -2.080851e-01 4.081079e-02 1.208825e-03 9.609294e-03
11             -1.981926e+00 7.342946e-02 -3.947224e+00 -1.995312e+00 7.611751e-02 -3.939935e+00 1.338652e-02 -2.688053e-03 -7.289013e-03
12             -2.394631e+00 -9.369372e-02 -6.589833e+00 -2.393409e+00 -8.926954e-02 -6.546314e+00 -1.222137e-03 -4.424181e-03 -4.351971e-02
13             -1.988364e+00 -2.577573e-01 -7.766098e+00 -2.010028e+00 -2.534306e-01 -7.691899e+00 2.166401e-02 -4.326681e-03 -7.419896e-02
14             -1.462399e+00 -3.737021e-01 -7.870906e+00 -1.492603e+00 -3.661928e-01 -7.784409e+00 3.020469e-02 -7.509283e-03 -8.649736e-02
15             -7.867802e-01 -4.652981e-01 -7.435989e+00 -8.390115e-01 -4.589642e-01 -7.354100e+00 5.223129e-02 -6.333934e-03 -8.188815e-02
16             -3.404327e-01 -5.901241e-01 -6.815214e+00 -3.916827e-01 -5.815605e-01 -6.751213e+00 5.125003e-02 -8.563637e-03 -6.400124e-02
17             4.549111e-04 -6.564994e-01 -6.213900e+00 -5.629663e-02 -6.502676e-01 -6.166950e+00 5.675155e-02 -6.231852e-03 -4.695013e-02
18             1.519794e-01 -6.423149e-01 -5.614448e+00 1.093478e-01 -6.383289e-01 -5.579102e+00 4.263153e-02 -3.986040e-03 -3.534661e-02
19             2.603846e-01 -5.588625e-01 -4.990220e+00 2.253352e-01 -5.585964e-01 -4.958981e+00 3.504943e-02 -2.661548e-04 -3.123943e-02
20             2.897339e-01 -4.838384e-01 -4.169197e+00 2.624928e-01 -4.844675e-01 -4.140576e+00 2.724102e-02 6.291745e-04 -2.862080e-02
21             3.123693e-01 -4.076433e-01 -3.119595e+00 2.847371e-01 -4.089494e-01 -3.094137e+00 2.763220e-02 1.306121e-03 -2.545772e-02
22             4.141198e-01 -3.299556e-01 -2.008467e+00 3.866769e-01 -3.313375e-01 -1.988207e+00 2.744289e-02 1.381863e-03 -2.026019e-02
23             6.213279e-01 -2.583801e-01 -1.017331e+00 5.910001e-01 -2.607433e-01 -1.001207e+00 3.032783e-02 2.363163e-03 -1.612334e-02
24             8.656248e-01 -2.034824e-01 -3.849839e-01 8.380109e-01 -2.059291e-01 -3.731496e-01 2.761399e-02 2.446634e-03 -1.183432e-02
25             1.094967e+00 -1.255270e-01 9.473095e-03 1.069199e+00 -1.281373e-01 1.766067e-02 2.576763e-02 2.610330e-03 -8.187573e-03
26             1.281442e+00 -4.635636e-02 2.429917e-01 1.258141e+00 -4.770322e-02 2.486015e-01 2.330061e-02 1.346860e-03 -5.609802e-03
27             1.396564e+00 2.027004e-02 3.419893e-01 1.375700e+00 1.946288e-02 3.456608e-01 2.086384e-02 8.071637e-04 -3.671445e-03
28             1.440292e+00 6.697444e-02 3.475474e-01 1.422428e+00 6.757609e-02 3.503287e-01 1.786340e-02 -6.016507e-04 -2.781292e-03
29             1.396482e+00 9.012036e-02 2.855442e-01 1.379746e+00 9.083336e-02 2.877959e-01 1.673602e-02 -7.130032e-04 -2.251706e-03
30             1.293720e+00 1.027919e-01 2.174453e-01 1.278573e+00 1.034696e-01 2.185849e-01 1.514741e-02 -6.776242e-04 -1.139673e-03
31             1.152586e+00 1.153037e-01 1.418042e-01 1.138705e+00 1.150415e-01 1.419068e-01 1.388046e-02 2.621056e-04 -1.026010e-04
32             1.004219e+00 1.216852e-01 8.870574e-02 9.908075e-01 1.208662e-01 8.724103e-02 1.341157e-02 8.190855e-04 1.464707e-03
33             8.725033e-01 1.260248e-01 4.028549e-02 8.593440e-01 1.245559e-01 3.776997e-02 1.315931e-02 1.468971e-03 2.515524e-03
34             7.903165e-01 1.163549e-01 4.243612e-02 7.765164e-01 1.148677e-01 3.848828e-02 1.380009e-02 1.487180e-03 3.947844e-03
35             7.453225e-01 7.720458e-02 7.826210e-02 7.304477e-01 7.609800e-02 7.358423e-02 1.487487e-02 1.106585e-03 4.677870e-03
36             7.338302e-01 1.325463e-02 1.553107e-01 7.171209e-01 1.302366e-02 1.501878e-01 1.670929e-02 2.309691e-04 5.122944e-03
37             7.364948e-01 -5.972573e-02 2.439352e-01 7.174269e-01 -5.869091e-02 2.388227e-01 1.906789e-02 -1.034815e-03 5.112543e-03
38             7.458428e-01 -1.239334e-01 3.266471e-01 7.241300e-01 -1.213371e-01 3.216608e-01 2.171285e-02 -2.596337e-03 4.986332e-03
39             7.535653e-01 -1.663396e-01 3.841105e-01 7.294011e-01 -1.623633e-01 3.791745e-01 2.416421e-02 -3.976339e-03 4.936030e-03
40             7.581641e-01 -1.812630e-01 4.049151e-01 7.319303e-01 -1.761290e-01 3.999117e-01 2.623380e-02 -5.133957e-03 5.003355e-03
41             7.618281e-01 -1.747151e-01 3.947106e-01 7.337682e-01 -1.688122e-01 3.896826e-01 2.805998e-02 -5.902932e-03 5.028046e-03
42             7.589588e-01 -1.551885e-01 3.626535e-01 7.293792e-01 -1.489369e-01 3.573517e-01 2.957954e-02 -6.251608e-03 5.301786e-03
43             7.548520e-01 -1.284416e-01 3.315016e-01 7.239033e-01 -1.220149e-01 3.259794e-01 3.094875e-02 -6.426738e-03 5.522263e-03
44             7.514628e-01 -9.844536e-02 3.067027e-01 7.192795e-01 -9.200726e-02 3.008969e-01 3.218333e-02 -6.438104e-03 5.805736e-03
45             7.504966e-01 -6.765772e-02 2.968519e-01 7.168551e-01 -6.141894e-02 2.908153e-01 3.364152e-02 -6.238777e-03 6.036573e-03
46             7.515849e-01 -3.798376e-02 2.925915e-01 7.165539e-01 -3.212526e-02 2.864282e-01 3.503096e-02 -5.858496e-03 6.163274e-03
47             7.546724e-01 -1.178969e-02 2.856585e-01 7.181275e-01 -6.366686e-03 2.795023e-01 3.654487e-02 -5.423007e-03 6.156140e-03
48             7.608835e-01 1.348426e-02 2.813353e-01 7.228401e-01 1.846558e-02 2.752828e-01 3.804339e-02 -4.981315e-03 6.052574e-03
49             7.653170e-01 3.163549e-02 2.802105e-01 7.257535e-01 3.617831e-02 2.743239e-01 3.956349e-02 -4.542825e-03 5.886548e-03
50             7.693123e-01 4.518942e-02 2.913640e-01 7.283083e-01 4.932106e-02 2.856383e-01 4.100400e-02 -4.131637e-03 5.725710e-03
51             7.711061e-01 5.609260e-02 3.138062e-01 7.287063e-01 5.981459e-02 3.081706e-01 4.239983e-02 -3.721991e-03 5.635569e-03
52             7.690316e-01 6.517064e-02 3.414978e-01 7.253276e-01 6.844715e-02 3.358032e-01 4.370398e-02 -3.276504e-03 5.694585e-03
53             7.630228e-01 7.347161e-02 3.699754e-01 7.180806e-01 7.628334e-02 3.641091e-01 4.494224e-02 -2.811725e-03 5.866228e-03
54             7.535719e-01 8.157848e-02 3.952642e-01 7.076480e-01 8.388137e-02 3.891052e-01 4.592390e-02 -2.302892e-03 6.158990e-03
55             7.450240e-01 8.821701e-02 4.071303e-01 6.983427e-01 9.000602e-02 4.006570e-01 4.668124e-02 -1.789008e-03 6.473304e-03
56             7.281862e-01 9.899271e-02 4.275062e-01 6.810109e-01 1.002069e-01 4.207160e-01 4.717524e-02 -1.214222e-03 6.790200e-03
57             7.117477e-01 1.096849e-01 4.405745e-01 6.640909e-01 1.103031e-01 4.335700e-01 4.765677e-02 -6.182223e-04 7.004491e-03
58             6.951456e-01 1.197686e-01 4.499662e-01 6.471117e-01 1.197810e-01 4.428178e-01 4.803390e-02 -1.239961e-05 7.148414e-03
59             6.788312e-01 1.274416e-01 4.563523e-01 6.304807e-01 1.269120e-01 4.491762e-01 4.835057e-02 5.295539e-04 7.176151e-03
60             6.626222e-01 1.312862e-01 4.583862e-01 6.139568e-01 1.303130e-01 4.511793e-01 4.866545e-02 9.732100e-04 7.206918e-03
61             6.472330e-01 1.303649e-01 4.548636e-01 5.981733e-01 1.290289e-01 4.476802e-01 4.905970e-02 1.336058e-03 7.183404e-03
62             6.328383e-01 1.243503e-01 4.453200e-01 5.833099e-01 1.227446e-01 4.381487e-01 4.952841e-02 1.605710e-03 7.171324e-03
63             6.192120e-01 1.137480e-01 4.295981e-01 5.691582e-01 1.119742e-01 4.224588e-01 5.005385e-02 1.773845e-03 7.139223e-03
64             6.064701e-01 9.940875e-02 4.086634e-01 5.558603e-01 9.755280e-02 4.015640e-01 5.060977e-02 1.855959e-03 7.099403e-03
65             5.942191e-01 8.303051e-02 3.837121e-01 5.430367e-01 8.116350e-02 3.766663e-01 5.118237e-02 1.867016e-03 7.045792e-03
66             5.833278e-01 6.636629e-02 3.555889e-01 5.315761e-01 6.453668e-02 3.486224e-01 5.175176e-02 1.829620e-03 6.966496e-03
67             5.734676e-01 5.098569e-02 3.275719e-01 5.211538e-01 4.922295e-02 3.206789e-01 5.231381e-02 1.762734e-03 6.893011e-03
68             5.655730e-01 3.719321e-02 2.966912e-01 5.126966e-01 3.552166e-02 2.898768e-01 5.287633e-02 1.671556e-03 6.814455e-03
69             5.590268e-01 2.691373e-02 2.743306e-01 5.055890e-01 2.533140e-02 2.675554e-01 5.343773e-02 1.582332e-03 6.775171e-03
70             5.541925e-01 1.920979e-02 2.596125e-01 5.002224e-01 1.771732e-02 2.528457e-01 5.397015e-02 1.492469e-03 6.766819e-03
71             5.507550e-01 1.352900e-02 2.520506e-01 4.962121e-01 1.210761e-02 2.452623e-01 5.454295e-02 1.421389e-03 6.788314e-03
72             5.482798e-01 8.800079e-03 2.505285e-01 4.932051e-01 7.454653e-03 2.436709e-01 5.507472e-02 1.345426e-03 6.857592e-03
73             5.466318e-01 4.823483e-03 2.532472e-01 4.909536e-01 3.540723e-03 2.462964e-01 5.567821e-02 1.282760e-03 6.950796e-03
74             5.453399e-01 1.166079e-03 2.584522e-01 4.890605e-01 -4.838896e-05 2.513704e-01 5.627943e-02 1.214468e-03 7.081767e-03
75             5.442552e-01 -1.883059e-03 2.643109e-01 4.873572e-01 -3.031606e-03 2.570836e-01 5.689795e-02 1.148546e-03 7.227269e-03
76             5.434255e-01 -4.318324e-03 2.684540e-01 4.858826e-01 -5.402223e-03 2.610747e-01 5.754284e-02 1.083899e-03 7.379300e-03
77             5.426113e-01 -5.716290e-03 2.688002e-01 4.843963e-01 -6.750451e-03 2.613053e-01 5.821500e-02 1.034161e-03 7.494929e-03
78             5.416967e-01 -6.218858e-03 2.638976e-01 4.828220e-01 -7.203369e-03 2.563313e-01 5.887466e-02 9.845108e-04 7.566316e-03
79             5.407411e-01 -5.679212e-03 2.537984e-01 4.812032e-01 -6.622235e-03 2.462241e-01 5.953792e-02 9.430228e-04 7.574319e-03
80             5.394247e-01 -4.506201e-03 2.400402e-01 4.792530e-01 -5.397485e-03 2.325165e-01 6.017164e-02 8.912836e-04 7.523699e-03
81             5.378017e-01 -2.608092e-03 2.265636e-01 4.770081e-01 -3.444058e-03 2.191275e-01 6.079356e-02 8.359653e-04 7.436089e-03
82             5.360515e-01 -6.614734e-04 2.140738e-01 4.746764e-01 -1.427031e-03 2.067522e-01 6.137500e-02 7.655573e-04 7.321602e-03
83             5.344753e-01 1.205544e-03 2.052029e-01 4.725769e-01 5.198189e-04 1.979839e-01 6.189845e-02 6.857251e-04 7.218956e-03
84             5.333014e-01 2.933586e-03 2.005954e-01 4.709056e-01 2.331839e-03 1.934824e-01 6.239581e-02 6.017476e-04 7.112990e-03
85             5.324800e-01 4.402475e-03 1.997527e-01 4.696410e-01 3.884298e-03 1.927219e-01 6.283900e-02 5.181768e-04 7.030847e-03
86             5.319056e-01 5.724358e-03 2.017433e-01 4.686469e-01 5.281813e-03 1.947973e-01 6.325866e-02 4.425451e-04 6.945969e-03
87             5.312480e-01 6.530310e-03 2.056752e-01 4.676096e-01 6.164053e-03 1.987838e-01 6.363841e-02 3.662566e-04 6.891432e-03
88             5.305367e-01 6.978931e-03 2.107385e-01 4.664938e-01 6.678403e-03 2.039080e-01 6.404292e-02 3.005276e-04 6.830512e-03
89             5.295629e-01 7.014284e-03 2.159893e-01 4.651442e-01 6.778344e-03 2.092034e-01 6.441876e-02 2.359399e-04 6.785853e-03
90             5.283775e-01 6.388613e-03 2.204533e-01 4.635665e-01 6.226048e-03 2.137124e-01 6.481099e-02 1.625651e-04 6.740885e-03
91             5.269546e-01 5.445348e-03 2.234790e-01 4.617799e-01 5.351921e-03 2.167892e-01 6.517479e-02 9.342673e-05 6.689872e-03
92             5.253363e-01 3.738249e-03 2.236490e-01 4.598073e-01 3.718145e-03 2.170190e-01 6.552904e-02 2.010377e-05 6.630022e-03
93             5.232686e-01 1.763484e-03 2.215850e-01 4.574114e-01 1.811453e-03 2.150317e-01 6.585719e-02 -4.796946e-05 6.553321e-03
94             5.207000e-01 -4.609436e-04 2.178656e-01 4.545482e-01 -3.400513e-04 2.113971e-01 6.615181e-02 -1.208923e-04 6.468508e-03
95             5.178371e-01 -2.546229e-03 2.137768e-01 4.514116e-01 -2.360367e-03 2.073981e-01 6.642547e-02 -1.858624e-04 6.378723e-03
96             5.144147e-01 -4.275996e-03 2.099211e-01 4.477475e-01 -4.031259e-03 2.036265e-01 6.666722e-02 -2.447368e-04 6.294647e-03
97             5.108223e-01 -5.228441e-03 2.072596e-01 4.439446e-01 -4.938587e-03 2.010353e-01 6.687768e-02 -2.898541e-04 6.224299e-03
98             5.072400e-01 -5.546768e-03 2.062053e-01 4.401856e-01 -5.221339e-03 2.000270e-01 6.705443e-02 -3.254290e-04 6.178205e-03
99             5.039301e-01 -5.032261e-03 2.066972e-01 4.367304e-01 -4.695325e-03 2.005448e-01 6.719977e-02 -3.369359e-04 6.152437e-03
100            5.011584e-01 -3.945873e-03 2.084104e-01 4.338529e-01 -3.611625e-03 2.022661e-01 6.730544e-02 -3.342485e-04 6.144361e-03
101            4.991422e-01 -2.717233e-03 2.110713e-01 4.317703e-01 -2.392842e-03 2.049078e-01 6.737190e-02 -3.243906e-04 6.163452e-03
102            4.980774e-01 -1.493901e-03 2.139501e-01 4.306667e-01 -1.188107e-03 2.077636e-01 6.741075e-02 -3.057942e-04 6.186530e-03
103            4.981292e-01 -6.554692e-04 2.165349e-01 4.307132e-01 -3.680476e-04 2.103148e-01 6.741604e-02 -2.874216e-04 6.220098e-03
104            4.993324e-01 -2.169862e-04 2.182628e-01 4.319242e-01 5.047695e-05 2.120162e-01 6.740820e-02 -2.674631e-04 6.246681e-03
105            5.014695e-01 -4.033927e-04 2.188322e-01 4.340847e-01 -1.500909e-04 2.125566e-01 6.738480e-02 -2.533018e-04 6.275651e-03
106            5.042473e-01 -9.490039e-04 2.183822e-01 4.368916e-01 -7.133279e-04 2.120882e-01 6.735572e-02 -2.356760e-04 6.293995e-03
107            5.072536e-01 -1.968269e-03 2.173605e-01 4.399465e-01 -1.743942e-03 2.110410e-01 6.730714e-02 -2.243266e-04 6.319524e-03
108            5.102092e-01 -2.985786e-03 2.163745e-01 4.429639e-01 -2.782455e-03 2.100337e-01 6.724531e-02 -2.033313e-04 6.340832e-03
109            5.128470e-01 -4.128066e-03 2.161243e-01 4.456891e-01 -3.934333e-03 2.097527e-01 6.715789e-02 -1.937331e-04 6.371597e-03
110            5.152636e-01 -4.858426e-03 2.171676e-01 4.482070e-01 -4.685492e-03 2.107723e-01 6.705654e-02 -1.729340e-04 6.395294e-03
111            5.177330e-01 -5.273457e-03 2.196718e-01 4.508087e-01 -5.118596e-03 2.132451e-01 6.692435e-02 -1.548603e-04 6.426755e-03
112            5.199314e-01 -5.026243e-03 2.236453e-01 4.531616e-01 -4.903041e-03 2.171987e-01 6.676987e-02 -1.232013e-04 6.446625e-03
113            5.220748e-01 -4.336936e-03 2.285942e-01 4.554929e-01 -4.245271e-03 2.221200e-01 6.658190e-02 -9.166581e-05 6.474205e-03
114            5.244308e-01 -3.036699e-03 2.340096e-01 4.580599e-01 -2.995781e-03 2.275186e-01 6.637085e-02 -4.091784e-05 6.490986e-03
115            5.271286e-01 -1.291374e-03 2.392106e-01 4.610042e-01 -1.310158e-03 2.327099e-01 6.612439e-02 1.878345e-05 6.500741e-03
116            5.300090e-01 4.972623e-04 2.437174e-01 4.641507e-01 4.245822e-04 2.372180e-01 6.585829e-02 7.268012e-05 6.499403e-03
117            5.327706e-01 2.257190e-03 2.471091e-01 4.671821e-01 2.153225e-03 2.406293e-01 6.558851e-02 1.039652e-04 6.479812e-03
118            5.348796e-01 3.381120e-03 2.490148e-01 4.695451e-01 3.295137e-03 2.425749e-01 6.533447e-02 8.598313e-05 6.439834e-03
119            5.360290e-01 4.092014e-03 2.491404e-01 4.709022e-01 4.066726e-03 2.427648e-01 6.512686e-02 2.528763e-05 6.375637e-03
120            5.359771e-01 4.267535e-03 2.476320e-01 4.710099e-01 4.336330e-03 2.413246e-01 6.496717e-02 -6.879470e-05 6.307427e-03
121            5.347035e-01 4.114228e-03 2.450840e-01 4.698475e-01 4.282332e-03 2.388548e-01 6.485598e-02 -1.681041e-04 6.229247e-03
122            5.323871e-01 3.720495e-03 2.420470e-01 4.675952e-01 3.976950e-03 2.359019e-01 6.479193e-02 -2.564556e-04 6.145096e-03
123            5.292666e-01 2.936735e-03 2.391983e-01 4.645063e-01 3.267943e-03 2.331245e-01 6.476036e-02 -3.312075e-04 6.073738e-03
124            5.255528e-01 2.046717e-03 2.370056e-01 4.607937e-01 2.418932e-03 2.309970e-01 6.475910e-02 -3.722147e-04 6.008610e-03
125            5.214269e-01 1.039964e-03 2.355635e-01 4.566605e-01 1.428427e-03 2.296045e-01 6.476645e-02 -3.884623e-04 5.959029e-03
126            5.171784e-01 1.026480e-04 2.347961e-01 4.524062e-01 4.796157e-04 2.288675e-01 6.477226e-02 -3.769676e-04 5.928614e-03
127            5.130749e-01 -6.280764e-04 2.345983e-01 4.483090e-01 -2.816059e-04 2.286801e-01 6.476586e-02 -3.464705e-04 5.918246e-03
128            5.094136e-01 -1.058387e-03 2.347582e-01 4.446644e-01 -7.607392e-04 2.288316e-01 6.474911e-02 -2.976474e-04 5.926600e-03
129            5.063985e-01 -1.229307e-03 2.349907e-01 4.416850e-01 -9.919519e-04 2.290363e-01 6.471345e-02 -2.373555e-04 5.954433e-03
130            5.042627e-01 -1.134788e-03 2.350368e-01 4.395997e-01 -9.701081e-04 2.290469e-01 6.466297e-02 -1.646799e-04 5.989924e-03
131            5.031545e-01 -8.972215e-04 2.348370e-01 4.385613e-01 -8.068240e-04 2.288007e-01 6.459322e-02 -9.039756e-05 6.036331e-03
132            5.032012e-01 -4.947827e-04 2.343214e-01 4.386916e-01 -4.783481e-04 2.282367e-01 6.450953e-02 -1.643461e-05 6.084705e-03
133            5.043370e-01 -1.229907e-04 2.336580e-01 4.399318e-01 -1.686828e-04 2.275171e-01 6.440515e-02 4.569201e-05 6.140869e-03
134            5.063945e-01 3.581118e-04 2.331159e-01 4.420999e-01 2.559306e-04 2.269261e-01 6.429464e-02 1.021812e-04 6.189765e-03
135            5.090555e-01 7.256779e-04 2.329528e-01 4.448854e-01 5.882947e-04 2.267079e-01 6.417013e-02 1.373832e-04 6.244888e-03
136            5.120948e-01 1.159324e-03 2.334401e-01 4.480497e-01 9.944557e-04 2.271442e-01 6.404508e-02 1.648683e-04 6.295827e-03
137            5.152512e-01 1.429281e-03 2.348911e-01 4.513451e-01 1.256037e-03 2.285308e-01 6.390605e-02 1.732442e-04 6.360282e-03
138            5.182773e-01 1.761019e-03 2.371190e-01 4.545090e-01 1.585145e-03 2.306958e-01 6.376832e-02 1.758741e-04 6.423127e-03
139            5.209870e-01 1.937984e-03 2.400724e-01 4.573711e-01 1.778659e-03 2.335731e-01 6.361591e-02 1.593253e-04 6.499347e-03
140            5.234201e-01 2.217684e-03 2.435441e-01 4.599576e-01 2.071457e-03 2.369785e-01 6.346256e-02 1.462277e-04 6.565642e-03
141            5.256797e-01 2.431981e-03 2.472441e-01 4.623865e-01 2.309373e-03 2.406168e-01 6.329320e-02 1.226087e-04 6.627341e-03
142            5.279025e-01 2.751994e-03 2.508360e-01 4.647953e-01 2.647643e-03 2.441685e-01 6.310724e-02 1.043501e-04 6.667468e-03
143            5.301729e-01 2.986651e-03 2.540184e-01 4.672774e-01 2.903316e-03 2.473244e-01 6.289549e-02 8.333486e-05 6.693964e-03
144            5.324285e-01 3.198429e-03 2.565918e-01 4.697528e-01 3.122483e-03 2.499016e-01 6.267577e-02 7.594630e-05 6.690175e-03
145            5.341574e-01 3.371662e-03 2.584403e-01 4.717108e-01 3.300867e-03 2.517808e-01 6.244665e-02 7.079451e-05 6.659505e-03
146            5.348646e-01 3.219356e-03 2.595047e-01 4.726201e-01 3.161341e-03 2.528950e-01 6.224448e-02 5.801511e-05 6.609653e-03
147            5.343407e-01 2.938139e-03 2.595010e-01 4.722597e-01 2.903159e-03 2.529627e-01 6.208108e-02 3.498040e-05 6.538365e-03
148            5.327769e-01 2.450078e-03 2.583995e-01 4.708151e-01 2.455451e-03 2.519466e-01 6.196180e-02 -5.373088e-06 6.452956e-03
149            5.304798e-01 1.734853e-03 2.567746e-01 4.685951e-01 1.806219e-03 2.504059e-01 6.188470e-02 -7.136589e-05 6.368635e-03
150            5.274608e-01 8.615914e-04 2.549790e-01 4.656150e-01 1.008737e-03 2.487049e-01 6.184579e-02 -1.471459e-04 6.274094e-03
151            5.237703e-01 -1.240119e-04 2.530799e-01 4.619378e-01 9.843615e-05 2.468960e-01 6.183255e-02 -2.224481e-04 6.183851e-03
152            5.196226e-01 -1.108688e-03 2.511555e-01 4.577760e-01 -8.271988e-04 2.450625e-01 6.184660e-02 -2.814896e-04 6.093041e-03
153            5.153029e-01 -2.138929e-03 2.493687e-01 4.534227e-01 -1.809412e-03 2.433444e-01 6.188019e-02 -3.295166e-04 6.024306e-03
154            5.112029e-01 -3.071303e-03 2.478082e-01 4.492673e-01 -2.710841e-03 2.418327e-01 6.193566e-02 -3.604625e-04 5.975497e-03
155            5.075782e-01 -3.872349e-03 2.465745e-01 4.455910e-01 -3.493465e-03 2.406215e-01 6.198718e-02 -3.788837e-04 5.952910e-03
156            5.045982e-01 -4.523059e-03 2.457800e-01 4.425670e-01 -4.137939e-03 2.398211e-01 6.203120e-02 -3.851207e-04 5.958935e-03
157            5.024067e-01 -4.990821e-03 2.451821e-01 4.403346e-01 -4.609775e-03 2.391969e-01 6.207204e-02 -3.810460e-04 5.985129e-03
158            5.010897e-01 -5.219114e-03 2.446861e-01 4.389892e-01 -4.850586e-03 2.386601e-01 6.210050e-02 -3.685275e-04 6.025999e-03
159            5.007528e-01 -5.357754e-03 2.442097e-01 4.386291e-01 -5.011477e-03 2.381322e-01 6.212376e-02 -3.462771e-04 6.077493e-03
160            5.014537e-01 -5.395059e-03 2.436076e-01 4.393208e-01 -5.076378e-03 2.374742e-01 6.213291e-02 -3.186806e-04 6.133364e-03
161            5.030106e-01 -5.514738e-03 2.431543e-01 4.408907e-01 -5.225959e-03 2.369583e-01 6.211986e-02 -2.887792e-04 6.196041e-03
162            5.052461e-01 -5.578161e-03 2.429048e-01 4.431554e-01 -5.319498e-03 2.366419e-01 6.209066e-02 -2.586633e-04 6.262948e-03
163            5.078977e-01 -5.655096e-03 2.430654e-01 4.458585e-01 -5.425673e-03 2.367318e-01 6.203919e-02 -2.294232e-04 6.333535e-03
164            5.108078e-01 -5.645605e-03 2.437916e-01 4.488361e-01 -5.445442e-03 2.373850e-01 6.197169e-02 -2.001635e-04 6.406634e-03
165            5.138388e-01 -5.611226e-03 2.450484e-01 4.519483e-01 -5.437259e-03 2.385659e-01 6.189050e-02 -1.739667e-04 6.482492e-03
166            5.168771e-01 -5.526286e-03 2.468533e-01 4.550796e-01 -5.373862e-03 2.402942e-01 6.179756e-02 -1.524240e-04 6.559102e-03
167            5.198919e-01 -5.329173e-03 2.490956e-01 4.581904e-01 -5.195446e-03 2.424586e-01 6.170149e-02 -1.337268e-04 6.636952e-03
168            5.227683e-01 -5.028445e-03 2.515262e-01 4.611687e-01 -4.911118e-03 2.448141e-01 6.159965e-02 -1.173270e-04 6.712153e-03
169            5.255016e-01 -4.575501e-03 2.540189e-01 4.640090e-01 -4.474506e-03 2.472360e-01 6.149257e-02 -1.009957e-04 6.782857e-03
170            5.281373e-01 -4.086064e-03 2.564293e-01 4.667556e-01 -4.000892e-03 2.495868e-01 6.138170e-02 -8.517194e-05 6.842508e-03
171            5.307194e-01 -3.519215e-03 2.586332e-01 4.694563e-01 -3.450355e-03 2.517408e-01 6.126302e-02 -6.886045e-05 6.892353e-03
172            5.332809e-01 -2.889107e-03 2.604903e-01 4.721419e-01 -2.842087e-03 2.535653e-01 6.113894e-02 -4.702044e-05 6.925015e-03
173            5.358149e-01 -2.420316e-03 2.619709e-01 4.748092e-01 -2.394976e-03 2.550166e-01 6.100568e-02 -2.533984e-05 6.954319e-03
174            5.383389e-01 -2.051715e-03 2.630463e-01 4.774677e-01 -2.061548e-03 2.560742e-01 6.087118e-02 9.832927e-06 6.972166e-03
175            5.407361e-01 -1.892285e-03 2.636665e-01 4.800103e-01 -1.945756e-03 2.566800e-01 6.072578e-02 5.347111e-05 6.986468e-03
176            5.429431e-01 -1.985702e-03 2.637459e-01 4.823553e-01 -2.081973e-03 2.567504e-01 6.058772e-02 9.627063e-05 6.995482e-03
177            5.448397e-01 -2.393651e-03 2.632927e-01 4.843778e-01 -2.518781e-03 2.562880e-01 6.046193e-02 1.251298e-04 7.004715e-03
178            5.462819e-01 -2.938878e-03 2.624910e-01 4.859188e-01 -3.085719e-03 2.554832e-01 6.036312e-02 1.468408e-04 7.007828e-03
179            5.471462e-01 -3.668222e-03 2.615524e-01 4.868525e-01 -3.830551e-03 2.545382e-01 6.029372e-02 1.623282e-04 7.014146e-03
180            5.474985e-01 -4.318966e-03 2.606553e-01 4.872275e-01 -4.507823e-03 2.536464e-01 6.027096e-02 1.888569e-04 7.008866e-03
181            5.473932e-01 -4.827537e-03 2.599074e-01 4.871152e-01 -5.057571e-03 2.529115e-01 6.027797e-02 2.300334e-04 6.995876e-03
182            5.468960e-01 -5.133921e-03 2.593565e-01 4.865851e-01 -5.415394e-03 2.523825e-01 6.031090e-02 2.814731e-04 6.973947e-03
183            5.460343e-01 -5.162597e-03 2.589064e-01 4.856810e-01 -5.498616e-03 2.519620e-01 6.035331e-02 3.360189e-04 6.944473e-03
184            5.448407e-01 -4.893630e-03 2.583792e-01 4.844385e-01 -5.280516e-03 2.514730e-01 6.040223e-02 3.868858e-04 6.906163e-03
185            5.433587e-01 -4.288606e-03 2.575894e-01 4.829055e-01 -4.720119e-03 2.507296e-01 6.045314e-02 4.315128e-04 6.859777e-03
186            5.416608e-01 -3.398190e-03 2.564125e-01 4.811516e-01 -3.867513e-03 2.496039e-01 6.050917e-02 4.693223e-04 6.808537e-03
187            5.397716e-01 -2.301544e-03 2.548291e-01 4.792060e-01 -2.803780e-03 2.480745e-01 6.056564e-02 5.022356e-04 6.754561e-03
188            5.377405e-01 -1.102393e-03 2.528760e-01 4.771083e-01 -1.633002e-03 2.461792e-01 6.063221e-02 5.306090e-04 6.696836e-03
189            5.355929e-01 6.210521e-05 2.506972e-01 4.748905e-01 -4.929691e-04 2.440607e-01 6.070237e-02 5.550743e-04 6.636479e-03
190            5.333609e-01 1.104534e-03 2.484337e-01 4.725789e-01 5.309121e-04 2.418563e-01 6.078207e-02 5.736219e-04 6.577482e-03
191            5.310107e-01 1.924988e-03 2.462298e-01 4.701467e-01 1.338466e-03 2.397090e-01 6.086401e-02 5.865222e-04 6.520770e-03
192            5.285139e-01 2.483619e-03 2.442347e-01 4.675653e-01 1.890675e-03 2.377693e-01 6.094863e-02 5.929438e-04 6.465402e-03
193            5.258461e-01 2.803953e-03 2.424873e-01 4.648093e-01 2.210174e-03 2.360742e-01 6.103680e-02 5.937790e-04 6.413007e-03
194            5.230104e-01 2.958304e-03 2.410034e-01 4.618785e-01 2.369060e-03 2.346416e-01 6.113192e-02 5.892437e-04 6.361834e-03
195            5.200624e-01 3.021358e-03 2.398332e-01 4.588307e-01 2.441876e-03 2.335158e-01 6.123173e-02 5.794819e-04 6.317394e-03
196            5.170683e-01 3.066152e-03 2.389410e-01 4.557313e-01 2.501495e-03 2.326641e-01 6.133698e-02 5.646571e-04 6.276970e-03
197            5.141158e-01 3.145797e-03 2.382861e-01 4.526729e-01 2.600715e-03 2.320429e-01 6.144284e-02 5.450823e-04 6.243225e-03
198            5.113255e-01 3.325861e-03 2.377789e-01 4.497771e-01 2.805726e-03 2.315628e-01 6.154838e-02 5.201350e-04 6.216069e-03
199            5.088038e-01 3.537895e-03 2.373941e-01 4.471551e-01 3.050662e-03 2.311949e-01 6.164865e-02 4.872328e-04 6.199241e-03
200            5.066217e-01 3.848395e-03 2.371558e-01 4.448766e-01 3.398904e-03 2.309650e-01 6.174510e-02 4.494916e-04 6.190794e-03
201            5.048535e-01 4.072828e-03 2.371663e-01 4.430191e-01 3.669761e-03 2.309680e-01 6.183444e-02 4.030669e-04 6.198329e-03
202            5.035896e-01 4.318257e-03 2.373481e-01 4.416685e-01 3.962554e-03 2.311340e-01 6.192109e-02 3.557030e-04 6.214088e-03
203            5.028775e-01 4.350955e-03 2.377248e-01 4.408812e-01 4.051394e-03 2.314784e-01 6.199627e-02 2.995601e-04 6.246402e-03
204            5.027545e-01 4.359951e-03 2.384396e-01 4.406903e-01 4.112256e-03 2.321552e-01 6.206422e-02 2.476944e-04 6.284465e-03
205            5.031589e-01 4.018429e-03 2.394022e-01 4.410460e-01 3.831335e-03 2.330647e-01 6.211291e-02 1.870943e-04 6.337538e-03
206            5.040830e-01 3.687391e-03 2.405844e-01 4.419253e-01 3.553599e-03 2.341933e-01 6.215765e-02 1.337922e-04 6.391164e-03
207            5.054303e-01 3.003935e-03 2.420463e-01 4.432547e-01 2.924415e-03 2.355891e-01 6.217565e-02 7.951989e-05 6.457218e-03
208            5.070586e-01 2.425759e-03 2.437637e-01 4.448746e-01 2.389120e-03 2.372446e-01 6.218395e-02 3.663854e-05 6.519103e-03
209            5.088774e-01 1.723495e-03 2.456536e-01 4.467107e-01 1.726699e-03 2.390652e-01 6.216675e-02 -3.203991e-06 6.588359e-03
210            5.108073e-01 1.041038e-03 2.476355e-01 4.486761e-01 1.067650e-03 2.409852e-01 6.213118e-02 -2.661140e-05 6.650362e-03
211            5.128149e-01 2.990889e-04 2.496555e-01 4.507477e-01 3.459519e-04 2.429438e-01 6.206722e-02 -4.686298e-05 6.711738e-03
212            5.148346e-01 -4.411708e-04 2.516500e-01 4.528559e-01 -3.830823e-04 2.448790e-01 6.197875e-02 -5.808846e-05 6.770967e-03
213            5.168588e-01 -1.014349e-03 2.535601e-01 4.549880e-01 -9.602664e-04 2.467433e-01 6.187079e-02 -5.408296e-05 6.816770e-03
214            5.188454e-01 -1.625209e-03 2.554463e-01 4.571071e-01 -1.574545e-03 2.485865e-01 6.173837e-02 -5.066412e-05 6.859869e-03
215            5.208402e-01 -2.118597e-03 2.572586e-01 4.592435e-01 -2.085959e-03 2.503730e-01 6.159662e-02 -3.263800e-05 6.885578e-03
216            5.228573e-01 -2.595551e-03 2.590064e-01 4.614263e-01 -2.584166e-03 2.521010e-01 6.143098e-02 -1.138528e-05 6.905421e-03
217            5.249680e-01 -2.862389e-03 2.606674e-01 4.637155e-01 -2.882919e-03 2.537595e-01 6.125246e-02 2.052997e-05 6.907887e-03
218            5.272252e-01 -3.091384e-03 2.622833e-01 4.661704e-01 -3.137517e-03 2.553783e-01 6.105481e-02 4.613291e-05 6.905006e-03
219            5.296908e-01 -3.093532e-03 2.638437e-01 4.688368e-01 -3.166188e-03 2.569546e-01 6.085401e-02 7.265613e-05 6.889053e-03
220            5.322389e-01 -2.883333e-03 2.653894e-01 4.715873e-01 -2.980622e-03 2.585247e-01 6.065163e-02 9.728833e-05 6.864736e-03
221            5.343851e-01 -2.610975e-03 2.668901e-01 4.739343e-01 -2.730018e-03 2.600528e-01 6.045081e-02 1.190436e-04 6.837344e-03
222            5.357597e-01 -2.278808e-03 2.680177e-01 4.754716e-01 -2.424764e-03 2.612196e-01 6.028804e-02 1.459564e-04 6.798082e-03