# Moment      
# CofR        : (-1.000000e+01 0.000000e+00 0.000000e+00)
#
# Time        	total_x total_y total_z	pressure_x pressure_y pressure_z	viscous_x viscous_y viscous_z
1              -9.700174e-03 -1.934354e+02 6.286406e-02 -9.702234e-03 -1.934581e+02 6.303586e-02 2.060232e-06 2.265986e-02 -1.718037e-04
2              -6.925803e-03 -6.154888e+01 1.100448e+00 -7.120858e-03 -6.050511e+01 1.099213e+00 1.950557e-04 -1.043772e+00 1.234807e-03
3              -9.738955e-03 -3.988699e+02 3.439159e+00 -1.006417e-02 -3.995652e+02 3.445828e+00 3.252116e-04 6.953246e-01 -6.669303e-03
4              -7.796725e-03 -1.526097e+02 3.307957e+00 -7.906894e-03 -1.529274e+02 3.304230e+00 1.101686e-04 3.177112e-01 3.726667e-03
5              2.441714e-02 -8.778119e+01 -3.122777e-01 2.430493e-02 -8.792107e+01 -3.182675e-01 1.122095e-04 1.398752e-01 5.989862e-03
6              2.063697e-02 -7.290715e+01 7.186470e-01 2.057564e-02 -7.308890e+01 6.991657e-01 6.132691e-05 1.817480e-01 1.948133e-02
7              1.620995e-02 -8.226396e+01 9.471176e-01 1.618886e-02 -8.246139e+01 9.246384e-01 2.108862e-05 1.974324e-01 2.247921e-02
8              5.182778e-03 -6.883770e+01 2.084459e+00 5.100577e-03 -6.880447e+01 2.072802e+00 8.220150e-05 -3.322542e-02 1.165679e-02
9              -4.406126e-03 -4.089986e+01 2.730880e+00 -4.692059e-03 -4.076342e+01 2.728596e+00 2.859332e-04 -1.364418e-01 2.283932e-03
10             -1.069782e-02 3.238337e+00 2.487621e+00 -1.098415e-02 3.355704e+00 2.474505e+00 2.863288e-04 -1.173663e-01 1.311610e-02
11             -9.326197e-03 4.138223e+01 7.314344e-01 -9.963019e-03 4.132895e+01 7.578755e-01 6.368220e-04 5.328149e-02 -2.644113e-02
12             -7.606057e-03 6.810849e+01 -9.594762e-01 -8.345398e-03 6.768733e+01 -9.151971e-01 7.393409e-04 4.211579e-01 -4.427908e-02
13             -7.244083e-04 7.987435e+01 -2.623190e+00 -1.438880e-03 7.913971e+01 -2.579672e+00 7.144713e-04 7.346346e-01 -4.351834e-02
14             5.987661e-03 8.075345e+01 -3.797545e+00 5.134974e-03 7.989063e+01 -3.721676e+00 8.526870e-04 8.628120e-01 -7.586853e-02
15             1.462243e-02 7.613562e+01 -4.725359e+00 1.389335e-02 7.531519e+01 -4.661690e+00 7.290744e-04 8.204303e-01 -6.366909e-02
16             2.454184e-02 6.961326e+01 -5.989502e+00 2.367551e-02 6.897151e+01 -5.903350e+00 8.663272e-04 6.417555e-01 -8.615206e-02
17             3.111531e-02 6.328482e+01 -6.659550e+00 3.037657e-02 6.281260e+01 -6.596834e+00 7.387377e-04 4.722255e-01 -6.271526e-02
18             3.139340e-02 5.700198e+01 -6.511636e+00 3.079402e-02 5.664606e+01 -6.471658e+00 5.993745e-04 3.559165e-01 -3.997739e-02
19             2.717398e-02 5.052228e+01 -5.662528e+00 2.679152e-02 5.020678e+01 -5.659885e+00 3.824560e-04 3.154950e-01 -2.643314e-03
20             2.325926e-02 4.213209e+01 -4.901329e+00 2.300760e-02 4.184202e+01 -4.907734e+00 2.516519e-04 2.900744e-01 6.404630e-03
21             2.064579e-02 3.149665e+01 -4.131016e+00 2.037582e-02 3.123748e+01 -4.143856e+00 2.699761e-04 2.591740e-01 1.283997e-02
22             1.884992e-02 2.028331e+01 -3.345819e+00 1.854364e-02 2.007614e+01 -3.359330e+00 3.062808e-04 2.071651e-01 1.351036e-02
23             1.666519e-02 1.029196e+01 -2.623253e+00 1.643690e-02 1.012600e+01 -2.646575e+00 2.282855e-04 1.659582e-01 2.332253e-02
24             1.416145e-02 3.920473e+00 -2.070887e+00 1.397206e-02 3.797685e+00 -2.095029e+00 1.893855e-04 1.227877e-01 2.414267e-02
25             9.604794e-03 -6.474889e-02 -1.285039e+00 9.476290e-03 -1.507597e-01 -1.310704e+00 1.285046e-04 8.601080e-02 2.566571e-02
26             4.068661e-03 -2.433311e+00 -4.850309e-01 3.902444e-03 -2.493196e+00 -4.978087e-01 1.662173e-04 5.988598e-02 1.277781e-02
27             -1.074407e-03 -3.443273e+00 1.883899e-01 -1.250358e-03 -3.483491e+00 1.812581e-01 1.759509e-04 4.021767e-02 7.131848e-03
28             -5.383834e-03 -3.508090e+00 6.595768e-01 -5.614651e-03 -3.539226e+00 6.668625e-01 2.308169e-04 3.113524e-02 -7.285725e-03
29             -8.177788e-03 -2.889412e+00 8.913209e-01 -8.404158e-03 -2.915208e+00 8.998112e-01 2.263700e-04 2.579567e-02 -8.490299e-03
30             -9.843936e-03 -2.210412e+00 1.015718e+00 -1.008714e-02 -2.224797e+00 1.023895e+00 2.432070e-04 1.438476e-02 -8.176596e-03
31             -1.048012e-02 -1.456122e+00 1.137547e+00 -1.068406e-02 -1.459878e+00 1.136186e+00 2.039475e-04 3.756165e-03 1.361797e-03
32             -9.841902e-03 -9.303304e-01 1.197052e+00 -1.003479e-02 -9.180701e-01 1.190047e+00 1.928875e-04 -1.226037e-02 7.005666e-03
33             -8.608202e-03 -4.476885e-01 1.237291e+00 -8.761373e-03 -4.247157e-01 1.223690e+00 1.531710e-04 -2.297281e-02 1.360067e-02
34             -6.486636e-03 -4.729882e-01 1.138061e+00 -6.651455e-03 -4.353995e-01 1.124278e+00 1.648191e-04 -3.758868e-02 1.378337e-02
35             -3.129398e-03 -8.345794e-01 7.428398e-01 -3.285413e-03 -7.895360e-01 7.328776e-01 1.560153e-04 -4.504340e-02 9.962171e-03
36             7.811490e-04 -1.611008e+00 9.804402e-02 5.924251e-04 -1.561389e+00 9.697928e-02 1.887240e-04 -4.961894e-02 1.064736e-03
37             4.210865e-03 -2.503360e+00 -6.372009e-01 4.011613e-03 -2.453777e+00 -6.254855e-01 1.992522e-04 -4.958290e-02 -1.171544e-02
38             6.162448e-03 -3.335843e+00 -1.283647e+00 5.913948e-03 -3.287497e+00 -1.256109e+00 2.484994e-04 -4.834603e-02 -2.753804e-02
39             6.304932e-03 -3.913402e+00 -1.709283e+00 6.041500e-03 -3.865494e+00 -1.667853e+00 2.634320e-04 -4.790842e-02 -4.143010e-02
40             5.037539e-03 -4.120150e+00 -1.856557e+00 4.748954e-03 -4.071514e+00 -1.803447e+00 2.885844e-04 -4.863598e-02 -5.311048e-02
41             3.363072e-03 -4.013212e+00 -1.786396e+00 3.077136e-03 -3.964230e+00 -1.725597e+00 2.859351e-04 -4.898176e-02 -6.079983e-02
42             1.954306e-03 -3.684979e+00 -1.585193e+00 1.678203e-03 -3.633147e+00 -1.520932e+00 2.761033e-04 -5.183191e-02 -6.426068e-02
43             9.828228e-04 -3.366050e+00 -1.311200e+00 7.335061e-04 -3.311894e+00 -1.245258e+00 2.493167e-04 -5.415609e-02 -6.594181e-02
44             3.651957e-04 -3.111033e+00 -1.004705e+00 1.385399e-04 -3.053942e+00 -9.387384e-01 2.266557e-04 -5.709158e-02 -6.596691e-02
45             -1.338623e-04 -3.007112e+00 -6.906044e-01 -3.294782e-04 -2.947637e+00 -6.267586e-01 1.956158e-04 -5.947476e-02 -6.384581e-02
46             -5.816432e-04 -2.959625e+00 -3.882153e-01 -7.499507e-04 -2.898839e+00 -3.283187e-01 1.683075e-04 -6.078618e-02 -5.989655e-02
47             -8.943771e-04 -2.885153e+00 -1.215526e-01 -1.031886e-03 -2.824429e+00 -6.614738e-02 1.375090e-04 -6.072377e-02 -5.540526e-02
48             -1.347963e-03 -2.836486e+00 1.353871e-01 -1.460447e-03 -2.776828e+00 1.862571e-01 1.124846e-04 -5.965789e-02 -5.087002e-02
49             -1.692010e-03 -2.821665e+00 3.196974e-01 -1.779683e-03 -2.763722e+00 3.660819e-01 8.767363e-05 -5.794347e-02 -4.638450e-02
50             -2.038567e-03 -2.932147e+00 4.571124e-01 -2.102745e-03 -2.875885e+00 4.993001e-01 6.417857e-05 -5.626204e-02 -4.218763e-02
51             -2.418241e-03 -3.157945e+00 5.674559e-01 -2.457406e-03 -3.102662e+00 6.054714e-01 3.916499e-05 -5.528296e-02 -3.801545e-02
52             -2.796193e-03 -3.437770e+00 6.590895e-01 -2.811263e-03 -3.381974e+00 6.925819e-01 1.507056e-05 -5.579572e-02 -3.349240e-02
53             -3.151285e-03 -3.726349e+00 7.426294e-01 -3.145640e-03 -3.668915e+00 7.714109e-01 -5.645714e-06 -5.743471e-02 -2.878154e-02
54             -3.473777e-03 -3.983324e+00 8.240550e-01 -3.449004e-03 -3.923026e+00 8.476883e-01 -2.477354e-05 -6.029783e-02 -2.363334e-02
55             -3.711484e-03 -4.104309e+00 8.905579e-01 -3.670379e-03 -4.040918e+00 9.089910e-01 -4.110511e-05 -6.339036e-02 -1.843308e-02
56             -4.151400e-03 -4.313110e+00 9.990063e-01 -4.092032e-03 -4.246591e+00 1.011630e+00 -5.936798e-05 -6.651950e-02 -1.262392e-02
57             -4.633026e-03 -4.448064e+00 1.106724e+00 -4.553373e-03 -4.379437e+00 1.113316e+00 -7.965260e-05 -6.862626e-02 -6.591590e-03
58             -5.135141e-03 -4.546129e+00 1.208404e+00 -5.035487e-03 -4.476095e+00 1.208862e+00 -9.965445e-05 -7.003444e-02 -4.583439e-04
59             -5.561287e-03 -4.613999e+00 1.285841e+00 -5.442894e-03 -4.543710e+00 1.280804e+00 -1.183931e-04 -7.028847e-02 5.036938e-03
60             -5.842877e-03 -4.637793e+00 1.324707e+00 -5.711310e-03 -4.567210e+00 1.315163e+00 -1.315674e-04 -7.058377e-02 9.543677e-03
61             -5.928236e-03 -4.605071e+00 1.315496e+00 -5.785108e-03 -4.534736e+00 1.302256e+00 -1.431276e-04 -7.033446e-02 1.324061e-02
62             -5.783220e-03 -4.510958e+00 1.254824e+00 -5.634245e-03 -4.440759e+00 1.238826e+00 -1.489751e-04 -7.019895e-02 1.599779e-02
63             -5.422128e-03 -4.353771e+00 1.147731e+00 -5.270776e-03 -4.283911e+00 1.130003e+00 -1.513525e-04 -6.986017e-02 1.772772e-02
64             -4.864544e-03 -4.143265e+00 1.002786e+00 -4.715560e-03 -4.073824e+00 9.842003e-01 -1.489844e-04 -6.944068e-02 1.858610e-02
65             -4.204810e-03 -3.891620e+00 8.371581e-01 -4.059187e-03 -3.822740e+00 8.184363e-01 -1.456233e-04 -6.887980e-02 1.872176e-02
66             -3.510972e-03 -3.607373e+00 6.686258e-01 -3.370834e-03 -3.539315e+00 6.502612e-01 -1.401380e-04 -6.805826e-02 1.836464e-02
67             -2.870737e-03 -3.323944e+00 5.131389e-01 -2.735324e-03 -3.256648e+00 4.954324e-01 -1.354130e-04 -6.729670e-02 1.770647e-02
68             -2.273178e-03 -3.011275e+00 3.738529e-01 -2.144675e-03 -2.944787e+00 3.570511e-01 -1.285028e-04 -6.648819e-02 1.680171e-02
69             -1.833503e-03 -2.785231e+00 2.702109e-01 -1.711431e-03 -2.719148e+00 2.542957e-01 -1.220713e-04 -6.608311e-02 1.591520e-02
70             -1.489625e-03 -2.636963e+00 1.926912e-01 -1.375026e-03 -2.570964e+00 1.776680e-01 -1.145987e-04 -6.599853e-02 1.502322e-02
71             -1.228736e-03 -2.561588e+00 1.356236e-01 -1.119841e-03 -2.495370e+00 1.213034e-01 -1.088956e-04 -6.621801e-02 1.432025e-02
72             -9.856287e-04 -2.547723e+00 8.812801e-02 -8.837158e-04 -2.480792e+00 7.455990e-02 -1.019129e-04 -6.693029e-02 1.356811e-02
73             -7.584569e-04 -2.576987e+00 4.814713e-02 -6.617501e-04 -2.509102e+00 3.519890e-02 -9.670684e-05 -6.788464e-02 1.294823e-02
74             -5.168058e-04 -2.631464e+00 1.131329e-02 -4.261348e-04 -2.562238e+00 -9.568338e-04 -9.067094e-05 -6.922606e-02 1.227012e-02
75             -2.887834e-04 -2.692430e+00 -1.944041e-02 -2.032152e-04 -2.621712e+00 -3.105339e-02 -8.556816e-05 -7.071716e-02 1.161298e-02
76             -6.827388e-05 -2.735657e+00 -4.400988e-02 1.185414e-05 -2.663384e+00 -5.497802e-02 -8.012803e-05 -7.227229e-02 1.096814e-02
77             1.044084e-04 -2.739896e+00 -5.809188e-02 1.806655e-04 -2.666441e+00 -6.856433e-02 -7.625705e-05 -7.345421e-02 1.047245e-02
78             2.370649e-04 -2.690329e+00 -6.309411e-02 3.086750e-04 -2.616145e+00 -7.307146e-02 -7.161016e-05 -7.418341e-02 9.977346e-03
79             3.012533e-04 -2.587522e+00 -5.753187e-02 3.693254e-04 -2.513259e+00 -6.709518e-02 -6.807219e-05 -7.426307e-02 9.563310e-03
80             3.135973e-04 -2.447241e+00 -4.553961e-02 3.768965e-04 -2.373499e+00 -5.458429e-02 -6.329914e-05 -7.374176e-02 9.044683e-03
81             2.548285e-04 -2.309746e+00 -2.620113e-02 3.140781e-04 -2.236905e+00 -3.468850e-02 -5.924958e-05 -7.284117e-02 8.487367e-03
82             1.526847e-04 -2.182374e+00 -6.399742e-03 2.073222e-04 -2.110707e+00 -1.417524e-02 -5.463744e-05 -7.166762e-02 7.775502e-03
83             2.268386e-05 -2.092002e+00 1.257118e-02 7.207578e-05 -2.021385e+00 5.603854e-03 -4.939192e-05 -7.061646e-02 6.967328e-03
84             -1.220773e-04 -2.045195e+00 3.011206e-02 -7.805205e-05 -1.975662e+00 2.399565e-02 -4.402524e-05 -6.953279e-02 6.116412e-03
85             -2.598505e-04 -2.036836e+00 4.501224e-02 -2.216597e-04 -1.968143e+00 3.974112e-02 -3.819078e-05 -6.869378e-02 5.271117e-03
86             -3.929561e-04 -2.057391e+00 5.839796e-02 -3.601153e-04 -1.989562e+00 5.389128e-02 -3.284084e-05 -6.782880e-02 4.506681e-03
87             -4.826556e-04 -2.097746e+00 6.654628e-02 -4.560594e-04 -2.030472e+00 6.280823e-02 -2.659618e-05 -6.727419e-02 3.738050e-03
88             -5.407961e-04 -2.149622e+00 7.105086e-02 -5.196587e-04 -2.082970e+00 6.797438e-02 -2.113736e-05 -6.665230e-02 3.076486e-03
89             -5.620512e-04 -2.203404e+00 7.134351e-02 -5.464814e-04 -2.137206e+00 6.891549e-02 -1.556982e-05 -6.619753e-02 2.428020e-03
90             -5.259868e-04 -2.249137e+00 6.491730e-02 -5.171845e-04 -2.183400e+00 6.322651e-02 -8.802266e-06 -6.573670e-02 1.690792e-03
91             -4.596699e-04 -2.280152e+00 5.524625e-02 -4.570765e-04 -2.214937e+00 5.425040e-02 -2.593463e-06 -6.521503e-02 9.958510e-04
92             -3.414757e-04 -2.282040e+00 3.781439e-02 -3.457057e-04 -2.217439e+00 3.755663e-02 4.230051e-06 -6.460120e-02 2.577688e-04
93             -2.056245e-04 -2.261140e+00 1.765227e-02 -2.157780e-04 -2.197324e+00 1.808045e-02 1.015345e-05 -6.381530e-02 -4.281772e-04
94             -5.396102e-05 -2.223378e+00 -5.034596e-03 -7.048468e-05 -2.160432e+00 -3.871034e-03 1.652366e-05 -6.294586e-02 -1.163561e-03
95             8.021316e-05 -2.181875e+00 -2.630050e-02 5.857456e-05 -2.119850e+00 -2.448131e-02 2.163860e-05 -6.202463e-02 -1.819187e-03
96             1.896995e-04 -2.142874e+00 -4.392466e-02 1.635993e-04 -2.081713e+00 -4.151130e-02 2.610020e-05 -6.116179e-02 -2.413357e-03
97             2.466786e-04 -2.116153e+00 -5.362786e-02 2.175898e-04 -2.055714e+00 -5.075921e-02 2.908880e-05 -6.043926e-02 -2.868653e-03
98             2.712233e-04 -2.105904e+00 -5.683914e-02 2.396795e-04 -2.045940e+00 -5.361193e-02 3.154379e-05 -5.996412e-02 -3.227211e-03
99             2.470958e-04 -2.111465e+00 -5.156044e-02 2.150579e-04 -2.051768e+00 -4.821759e-02 3.203792e-05 -5.969716e-02 -3.342850e-03
100            1.919024e-04 -2.129472e+00 -4.044786e-02 1.604531e-04 -2.069860e+00 -3.713323e-02 3.144930e-05 -5.961254e-02 -3.314625e-03
101            1.305620e-04 -2.157076e+00 -2.787162e-02 9.986897e-05 -2.097271e+00 -2.465773e-02 3.069308e-05 -5.980540e-02 -3.213884e-03
102            6.781241e-05 -2.186794e+00 -1.535661e-02 3.885013e-05 -2.126753e+00 -1.233118e-02 2.896228e-05 -6.004100e-02 -3.025436e-03
103            2.656001e-05 -2.213351e+00 -6.757788e-03 -7.929819e-07 -2.152966e+00 -3.917967e-03 2.735299e-05 -6.038458e-02 -2.839820e-03
104            5.807490e-06 -2.230997e+00 -2.243607e-03 -1.937356e-05 -2.170340e+00 3.955328e-04 2.518105e-05 -6.065759e-02 -2.639140e-03
105            2.413830e-05 -2.236664e+00 -4.087750e-03 7.587503e-07 -2.175710e+00 -1.589842e-03 2.337955e-05 -6.095382e-02 -2.497909e-03
106            5.723190e-05 -2.231796e+00 -9.606055e-03 3.662218e-05 -2.170655e+00 -7.283039e-03 2.060972e-05 -6.114085e-02 -2.323015e-03
107            1.208655e-04 -2.221012e+00 -1.993632e-02 1.025711e-04 -2.159612e+00 -1.772413e-02 1.829439e-05 -6.139926e-02 -2.212192e-03
108            1.785160e-04 -2.210568e+00 -3.026932e-02 1.637943e-04 -2.148954e+00 -2.826398e-02 1.472173e-05 -6.161425e-02 -2.005337e-03
109            2.486788e-04 -2.207648e+00 -4.185335e-02 2.362908e-04 -2.145723e+00 -3.993987e-02 1.238795e-05 -6.192575e-02 -1.913485e-03
110            2.872498e-04 -2.217955e+00 -4.925675e-02 2.782648e-04 -2.155788e+00 -4.754732e-02 8.985049e-06 -6.216728e-02 -1.709425e-03
111            3.089074e-04 -2.243186e+00 -5.343601e-02 3.025745e-04 -2.180695e+00 -5.190349e-02 6.332864e-06 -6.249033e-02 -1.532517e-03
112            2.838053e-04 -2.283452e+00 -5.089089e-02 2.812694e-04 -2.220753e+00 -4.967235e-02 2.535875e-06 -6.269978e-02 -1.218541e-03
113            2.346324e-04 -2.333691e+00 -4.384173e-02 2.350568e-04 -2.270700e+00 -4.293674e-02 -4.243563e-07 -6.299092e-02 -9.049922e-04
114            1.427739e-04 -2.388665e+00 -3.059710e-02 1.476533e-04 -2.325488e+00 -3.019915e-02 -4.879419e-06 -6.317607e-02 -3.979555e-04
115            2.168181e-05 -2.441401e+00 -1.284560e-02 3.133100e-05 -2.378107e+00 -1.304501e-02 -9.649193e-06 -6.329386e-02 1.994176e-04
116            -9.977619e-05 -2.486992e+00 5.334891e-03 -8.634723e-05 -2.423691e+00 4.596630e-03 -1.342896e-05 -6.330139e-02 7.382610e-04
117            -2.239185e-04 -2.521152e+00 2.319055e-02 -2.087354e-04 -2.458028e+00 2.214037e-02 -1.518312e-05 -6.312457e-02 1.050189e-03
118            -3.046692e-04 -2.540150e+00 3.457580e-02 -2.921467e-04 -2.477411e+00 3.370810e-02 -1.252248e-05 -6.273987e-02 8.677027e-04
119            -3.552819e-04 -2.541067e+00 4.173751e-02 -3.486097e-04 -2.478962e+00 4.148066e-02 -6.672180e-06 -6.210587e-02 2.568543e-04
120            -3.545173e-04 -2.525463e+00 4.345714e-02 -3.564280e-04 -2.464037e+00 4.414602e-02 1.910731e-06 -6.142589e-02 -6.888851e-04
121            -3.240578e-04 -2.499424e+00 4.183078e-02 -3.344207e-04 -2.438784e+00 4.351802e-02 1.036287e-05 -6.064052e-02 -1.687240e-03
122            -2.804834e-04 -2.468585e+00 3.775938e-02 -2.977707e-04 -2.408794e+00 4.033519e-02 1.728728e-05 -5.979087e-02 -2.575811e-03
123            -2.144242e-04 -2.439830e+00 2.974460e-02 -2.377074e-04 -2.380762e+00 3.307273e-02 2.328319e-05 -5.906776e-02 -3.328126e-03
124            -1.478739e-04 -2.417906e+00 2.066259e-02 -1.740792e-04 -2.359500e+00 2.440405e-02 2.620530e-05 -5.840577e-02 -3.741461e-03
125            -7.616374e-05 -2.403754e+00 1.042632e-02 -1.032407e-04 -2.345853e+00 1.433210e-02 2.707700e-05 -5.790091e-02 -3.905777e-03
126            -1.160233e-05 -2.396559e+00 9.257791e-04 -3.713128e-05 -2.338969e+00 4.716597e-03 2.552896e-05 -5.759041e-02 -3.790818e-03
127            3.720947e-05 -2.395192e+00 -6.448468e-03 1.488833e-05 -2.337708e+00 -2.964065e-03 2.232114e-05 -5.748397e-02 -3.484403e-03
128            6.450226e-05 -2.397428e+00 -1.074823e-02 4.702974e-05 -2.339861e+00 -7.755003e-03 1.747252e-05 -5.756759e-02 -2.993223e-03
129            7.511516e-05 -2.400318e+00 -1.239158e-02 6.344604e-05 -2.342469e+00 -1.000553e-02 1.166912e-05 -5.784915e-02 -2.386054e-03
130            6.691163e-05 -2.401184e+00 -1.132662e-02 6.227504e-05 -2.342975e+00 -9.672743e-03 4.636596e-06 -5.820876e-02 -1.653873e-03
131            5.400869e-05 -2.399389e+00 -8.800753e-03 5.653075e-05 -2.340710e+00 -7.895891e-03 -2.522061e-06 -5.867928e-02 -9.048622e-04
132            3.054297e-05 -2.394219e+00 -4.611688e-03 4.052573e-05 -2.335050e+00 -4.453020e-03 -9.982763e-06 -5.916983e-02 -1.586677e-04
133            1.092259e-05 -2.387400e+00 -7.481660e-04 2.724599e-05 -2.327660e+00 -1.216887e-03 -1.632341e-05 -5.973971e-02 4.687210e-04
134            -2.132428e-05 -2.381697e+00 4.187321e-03 1.238556e-06 -2.321461e+00 3.147931e-03 -2.256284e-05 -6.023631e-02 1.039391e-03
135            -4.906259e-05 -2.379782e+00 7.942764e-03 -2.244979e-05 -2.318986e+00 6.546987e-03 -2.661280e-05 -6.079656e-02 1.395777e-03
136            -8.985921e-05 -2.384455e+00 1.232845e-02 -5.972439e-05 -2.323140e+00 1.065429e-02 -3.013482e-05 -6.131462e-02 1.674152e-03
137            -1.223257e-04 -2.398913e+00 1.503581e-02 -9.095468e-05 -2.336943e+00 1.327583e-02 -3.137098e-05 -6.197011e-02 1.759978e-03
138            -1.662849e-04 -2.421303e+00 1.834618e-02 -1.341734e-04 -2.358693e+00 1.655858e-02 -3.211149e-05 -6.260952e-02 1.787598e-03
139            -1.996477e-04 -2.451100e+00 2.008974e-02 -1.692701e-04 -2.387715e+00 1.846772e-02 -3.037767e-05 -6.338521e-02 1.622022e-03
140            -2.410257e-04 -2.486188e+00 2.287171e-02 -2.121374e-04 -2.422127e+00 2.138092e-02 -2.888834e-05 -6.406132e-02 1.490790e-03
141            -2.732360e-04 -2.523594e+00 2.500512e-02 -2.472327e-04 -2.458901e+00 2.375137e-02 -2.600330e-05 -6.469287e-02 1.253747e-03
142            -3.118320e-04 -2.559870e+00 2.821658e-02 -2.881923e-04 -2.494762e+00 2.714611e-02 -2.363965e-05 -6.510865e-02 1.070470e-03
143            -3.385322e-04 -2.591930e+00 3.057934e-02 -3.180842e-04 -2.526540e+00 2.972000e-02 -2.044801e-05 -6.538941e-02 8.593333e-04
144            -3.585821e-04 -2.617738e+00 3.271257e-02 -3.402048e-04 -2.552372e+00 3.192805e-02 -1.837733e-05 -6.536560e-02 7.845219e-04
145            -3.709490e-04 -2.636161e+00 3.444599e-02 -3.546821e-04 -2.571090e+00 3.371351e-02 -1.626685e-05 -6.507160e-02 7.324833e-04
146            -3.519250e-04 -2.646639e+00 3.287175e-02 -3.388543e-04 -2.582058e+00 3.226764e-02 -1.307072e-05 -6.458160e-02 6.041112e-04
147            -3.113226e-04 -2.646359e+00 2.997353e-02 -3.021476e-04 -2.582487e+00 2.959991e-02 -9.175005e-06 -6.387197e-02 3.736166e-04
148            -2.419834e-04 -2.635064e+00 2.497179e-02 -2.376749e-04 -2.572048e+00 2.500165e-02 -4.308478e-06 -6.301612e-02 -2.986113e-05
149            -1.530553e-04 -2.618562e+00 1.766757e-02 -1.554874e-04 -2.556394e+00 1.835796e-02 2.432075e-06 -6.216766e-02 -6.903899e-04
150            -5.952512e-05 -2.600450e+00 8.757670e-03 -6.885777e-05 -2.539237e+00 1.020714e-02 9.332642e-06 -6.121362e-02 -1.449474e-03
151            3.130662e-05 -2.581432e+00 -1.295841e-03 1.538327e-05 -2.521131e+00 9.082319e-04 1.592335e-05 -6.030150e-02 -2.204073e-03
152            1.077268e-04 -2.562291e+00 -1.134990e-02 8.718973e-05 -2.502909e+00 -8.553885e-03 2.053706e-05 -5.938226e-02 -2.796015e-03
153            1.776186e-04 -2.544639e+00 -2.186717e-02 1.531556e-04 -2.485955e+00 -1.858901e-02 2.446305e-05 -5.868458e-02 -3.278157e-03
154            2.317582e-04 -2.529326e+00 -3.139396e-02 2.048972e-04 -2.471139e+00 -2.780432e-02 2.686099e-05 -5.818660e-02 -3.589641e-03
155            2.761034e-04 -2.517319e+00 -3.958311e-02 2.476738e-04 -2.459365e+00 -3.580729e-02 2.842965e-05 -5.795391e-02 -3.775821e-03
156            3.104289e-04 -2.509705e+00 -4.623845e-02 2.811047e-04 -2.451695e+00 -4.239834e-02 2.932415e-05 -5.801054e-02 -3.840109e-03
157            3.308412e-04 -2.503999e+00 -5.102495e-02 3.014395e-04 -2.445728e+00 -4.722374e-02 2.940174e-05 -5.827069e-02 -3.801208e-03
158            3.363783e-04 -2.499219e+00 -5.336585e-02 3.074781e-04 -2.440540e+00 -4.968842e-02 2.890018e-05 -5.867939e-02 -3.677439e-03
159            3.342384e-04 -2.494514e+00 -5.477500e-02 3.066587e-04 -2.435319e+00 -5.131952e-02 2.757971e-05 -5.919490e-02 -3.455481e-03
160            3.214826e-04 -2.488424e+00 -5.513904e-02 2.959446e-04 -2.428669e+00 -5.195982e-02 2.553793e-05 -5.975497e-02 -3.179218e-03
161            3.144359e-04 -2.483743e+00 -5.631305e-02 2.912983e-04 -2.423358e+00 -5.343395e-02 2.313763e-05 -6.038473e-02 -2.879109e-03
162            3.020017e-04 -2.481058e+00 -5.690659e-02 2.816430e-04 -2.420000e+00 -5.433035e-02 2.035872e-05 -6.105787e-02 -2.576240e-03
163            2.916165e-04 -2.482486e+00 -5.763106e-02 2.742726e-04 -2.420717e+00 -5.534929e-02 1.734396e-05 -6.176962e-02 -2.281769e-03
164            2.743555e-04 -2.489624e+00 -5.748334e-02 2.603108e-04 -2.427116e+00 -5.549636e-02 1.404470e-05 -6.250799e-02 -1.986975e-03
165            2.549702e-04 -2.502131e+00 -5.708567e-02 2.440782e-04 -2.438855e+00 -5.536264e-02 1.089202e-05 -6.327544e-02 -1.723028e-03
166            2.331219e-04 -2.520192e+00 -5.617868e-02 2.250034e-04 -2.456140e+00 -5.467250e-02 8.118561e-06 -6.405180e-02 -1.506183e-03
167            2.032167e-04 -2.542679e+00 -5.413846e-02 1.974786e-04 -2.477837e+00 -5.282037e-02 5.738058e-06 -6.484124e-02 -1.318090e-03
168            1.674103e-04 -2.567070e+00 -5.105002e-02 1.637140e-04 -2.501466e+00 -4.989667e-02 3.696306e-06 -6.560479e-02 -1.153350e-03
169            1.206629e-04 -2.592071e+00 -4.642298e-02 1.188533e-04 -2.525748e+00 -4.543375e-02 1.809616e-06 -6.632362e-02 -9.892241e-04
170            7.331616e-05 -2.616203e+00 -4.142388e-02 7.321267e-05 -2.549272e+00 -4.059349e-02 1.034875e-07 -6.693144e-02 -8.303915e-04
171            2.300183e-05 -2.638191e+00 -3.563860e-02 2.441207e-05 -2.570750e+00 -3.497215e-02 -1.410237e-06 -6.744109e-02 -6.664508e-04
172            -2.977138e-05 -2.656612e+00 -2.921445e-02 -2.636199e-05 -2.588834e+00 -2.876758e-02 -3.409382e-06 -6.777803e-02 -4.468743e-04
173            -6.292980e-05 -2.671166e+00 -2.441684e-02 -5.796103e-05 -2.603084e+00 -2.418803e-02 -4.968769e-06 -6.808190e-02 -2.288120e-04
174            -8.116405e-05 -2.681582e+00 -2.063469e-02 -7.343814e-05 -2.613311e+00 -2.075905e-02 -7.725908e-06 -6.827057e-02 1.243611e-04
175            -7.827133e-05 -2.687392e+00 -1.897559e-02 -6.718028e-05 -2.618967e+00 -1.953794e-02 -1.109106e-05 -6.842472e-02 5.623528e-04
176            -5.247063e-05 -2.687776e+00 -1.988570e-02 -3.798670e-05 -2.619250e+00 -2.087754e-02 -1.448394e-05 -6.852543e-02 9.918430e-04
177            -1.084400e-06 -2.682855e+00 -2.398506e-02 1.564246e-05 -2.614227e+00 -2.526673e-02 -1.672686e-05 -6.862800e-02 1.281671e-03
178            5.434772e-05 -2.674515e+00 -2.948446e-02 7.325251e-05 -2.605847e+00 -3.098453e-02 -1.890479e-05 -6.866742e-02 1.500063e-03
179            1.160443e-04 -2.664897e+00 -3.685430e-02 1.366760e-04 -2.596159e+00 -3.851039e-02 -2.063164e-05 -6.873770e-02 1.656097e-03
180            1.608140e-04 -2.655788e+00 -4.344467e-02 1.844380e-04 -2.587099e+00 -4.536738e-02 -2.362404e-05 -6.868831e-02 1.922702e-03
181            1.877128e-04 -2.648255e+00 -4.861065e-02 2.155786e-04 -2.579695e+00 -5.094659e-02 -2.786572e-05 -6.855971e-02 2.335936e-03
182            1.973483e-04 -2.642759e+00 -5.174326e-02 2.301687e-04 -2.574420e+00 -5.459509e-02 -3.282035e-05 -6.833945e-02 2.851821e-03
183            1.871175e-04 -2.638311e+00 -5.207277e-02 2.250249e-04 -2.570269e+00 -5.547115e-02 -3.790741e-05 -6.804260e-02 3.398378e-03
184            1.575912e-04 -2.633101e+00 -4.938875e-02 2.000807e-04 -2.565444e+00 -5.329647e-02 -4.248950e-05 -6.765604e-02 3.907716e-03
185            1.039627e-04 -2.625248e+00 -4.329600e-02 1.504542e-04 -2.558060e+00 -4.765035e-02 -4.649148e-05 -6.718751e-02 4.354356e-03
186            2.805574e-05 -2.613484e+00 -3.429929e-02 7.789211e-05 -2.546815e+00 -3.903212e-02 -4.983637e-05 -6.666883e-02 4.732833e-03
187            -6.479959e-05 -2.597611e+00 -2.319490e-02 -1.203433e-05 -2.531489e+00 -2.825745e-02 -5.276526e-05 -6.612164e-02 5.062552e-03
188            -1.659700e-04 -2.578005e+00 -1.102940e-02 -1.106921e-04 -2.512470e+00 -1.637664e-02 -5.527781e-05 -6.553497e-02 5.347240e-03
189            -2.634957e-04 -2.556122e+00 8.100133e-04 -2.060093e-04 -2.491201e+00 -4.783127e-03 -5.748640e-05 -6.492090e-02 5.593141e-03
190            -3.492172e-04 -2.533399e+00 1.143492e-02 -2.899606e-04 -2.469080e+00 5.654888e-03 -5.925658e-05 -6.431914e-02 5.780034e-03
191            -4.141542e-04 -2.511304e+00 1.982784e-02 -3.535257e-04 -2.447564e+00 1.391748e-02 -6.062849e-05 -6.373996e-02 5.910367e-03
192            -4.536806e-04 -2.491353e+00 2.557904e-02 -3.922172e-04 -2.428179e+00 1.960326e-02 -6.146340e-05 -6.317389e-02 5.975779e-03
193            -4.683093e-04 -2.473940e+00 2.891873e-02 -4.065458e-04 -2.411303e+00 2.293369e-02 -6.176349e-05 -6.263741e-02 5.985036e-03
194            -4.628937e-04 -2.459228e+00 3.056912e-02 -4.013890e-04 -2.397115e+00 2.462881e-02 -6.150472e-05 -6.211262e-02 5.940314e-03
195            -4.434403e-04 -2.447701e+00 3.127712e-02 -3.827833e-04 -2.386046e+00 2.543430e-02 -6.065707e-05 -6.165515e-02 5.842819e-03
196            -4.181812e-04 -2.438990e+00 3.177573e-02 -3.589725e-04 -2.377752e+00 2.608158e-02 -5.920875e-05 -6.123765e-02 5.694155e-03
197            -3.938032e-04 -2.432660e+00 3.260188e-02 -3.366239e-04 -2.371773e+00 2.710443e-02 -5.717927e-05 -6.088736e-02 5.497442e-03
198            -3.759430e-04 -2.427792e+00 3.441716e-02 -3.214517e-04 -2.367189e+00 2.917082e-02 -5.449130e-05 -6.060346e-02 5.246342e-03
199            -3.596393e-04 -2.424121e+00 3.653485e-02 -3.087268e-04 -2.363696e+00 3.162001e-02 -5.091249e-05 -6.042404e-02 4.914836e-03
200            -3.518019e-04 -2.421889e+00 3.962654e-02 -3.049519e-04 -2.361560e+00 3.509216e-02 -4.684998e-05 -6.032937e-02 4.534373e-03
201            -3.381478e-04 -2.422133e+00 4.183386e-02 -2.962685e-04 -2.361737e+00 3.776763e-02 -4.187936e-05 -6.039632e-02 4.066224e-03
202            -3.290106e-04 -2.424081e+00 4.423815e-02 -2.919947e-04 -2.363535e+00 4.064989e-02 -3.701584e-05 -6.054638e-02 3.588258e-03
203            -3.055090e-04 -2.427980e+00 4.448509e-02 -2.743311e-04 -2.367116e+00 4.146340e-02 -3.117788e-05 -6.086421e-02 3.021682e-03
204            -2.869843e-04 -2.435284e+00 4.448160e-02 -2.610404e-04 -2.374043e+00 4.198399e-02 -2.594392e-05 -6.124060e-02 2.497614e-03
205            -2.452117e-04 -2.445087e+00 4.093661e-02 -2.255300e-04 -2.383317e+00 3.905123e-02 -1.968171e-05 -6.176992e-02 1.885380e-03
206            -2.115133e-04 -2.457101e+00 3.749360e-02 -1.970189e-04 -2.394795e+00 3.614760e-02 -1.449442e-05 -6.230526e-02 1.345996e-03
207            -1.551801e-04 -2.471930e+00 3.050024e-02 -1.461514e-04 -2.408962e+00 2.970354e-02 -9.028666e-06 -6.296821e-02 7.967062e-04
208            -1.141794e-04 -2.489331e+00 2.457585e-02 -1.090648e-04 -2.425741e+00 2.421394e-02 -5.114597e-06 -6.359012e-02 3.619144e-04
209            -6.734080e-05 -2.508454e+00 1.741023e-02 -6.588493e-05 -2.444166e+00 1.745206e-02 -1.455869e-06 -6.428841e-02 -4.183256e-05
210            -2.510831e-05 -2.528483e+00 1.045448e-02 -2.557938e-05 -2.463568e+00 1.073460e-02 4.710683e-07 -6.491520e-02 -2.801218e-04
211            2.201889e-05 -2.548858e+00 2.909420e-03 2.015986e-05 -2.483320e+00 3.395414e-03 1.859029e-06 -6.553788e-02 -4.859943e-04
212            7.165120e-05 -2.568937e+00 -4.609011e-03 6.914997e-05 -2.502796e+00 -4.008696e-03 2.501229e-06 -6.614079e-02 -6.003152e-04
213            1.119913e-04 -2.588124e+00 -1.043445e-02 1.105270e-04 -2.521514e+00 -9.873494e-03 1.464256e-06 -6.660988e-02 -5.609579e-04
214            1.613784e-04 -2.607031e+00 -1.662912e-02 1.607049e-04 -2.539978e+00 -1.610255e-02 6.735196e-07 -6.705361e-02 -5.265722e-04
215            2.063588e-04 -2.625156e+00 -2.162895e-02 2.079632e-04 -2.557833e+00 -2.128412e-02 -1.604456e-06 -6.732287e-02 -3.448292e-04
216            2.555806e-04 -2.642603e+00 -2.644911e-02 2.595251e-04 -2.575068e+00 -2.631922e-02 -3.944448e-06 -6.753506e-02 -1.298886e-04