# Solver information
# Time        	U_solver      	Ux_initial    	Ux_final      	Ux_iters      	Uy_initial    	Uy_final      	Uy_iters      	Uz_initial    	Uz_final      	Uz_iters      	U_converged   	k_solver      	k_initial     	k_final       	k_iters       	k_converged   	omega_solver  	omega_initial 	omega_final   	omega_iters   	omega_converged	p_solver      	p_initial     	p_final       	p_iters       	p_converged   
1             	smoothSolver	1.000000e+00	9.533530e-02	12	1.000000e+00	9.986370e-02	11	1.000000e+00	8.710010e-02	13	false	smoothSolver	1.000000e+00	5.953480e-02	4	true	smoothSolver	1.453390e-01	9.622080e-03	3	true	GAMG	1.000000e+00	7.316780e-03	10	true
2             	smoothSolver	3.774410e-01	3.574010e-02	10	7.781770e-01	7.598240e-02	10	5.063850e-01	4.117160e-02	11	false	smoothSolver	7.922580e-01	5.370000e-02	3	true	smoothSolver	8.345060e-02	5.993390e-03	5	true	GAMG	2.409370e-01	2.025600e-03	6	true
3             	smoothSolver	3.859560e-01	3.305680e-02	7	6.054370e-01	4.920700e-02	8	4.757060e-01	4.489700e-02	8	false	smoothSolver	1.237820e-01	9.344390e-03	3	true	smoothSolver	4.086240e-02	2.481330e-03	4	true	GAMG	5.576090e-01	4.290610e-03	9	true
4             	smoothSolver	4.440460e-01	4.354890e-02	6	5.682690e-01	4.537740e-02	7	4.654640e-01	3.550670e-02	7	false	smoothSolver	7.858010e-02	5.597980e-03	3	true	smoothSolver	3.145910e-02	2.037340e-03	3	true	GAMG	9.159580e-02	7.048510e-04	10	true
5             	smoothSolver	3.342810e-01	3.127700e-02	7	4.689170e-01	4.000910e-02	7	3.316670e-01	2.567440e-02	7	false	smoothSolver	6.467780e-02	4.967280e-03	3	true	smoothSolver	2.282680e-02	1.471270e-03	3	true	GAMG	9.935440e-02	8.154560e-04	10	true
6             	smoothSolver	2.755350e-01	2.512600e-02	7	4.200760e-01	3.064750e-02	7	2.907940e-01	2.250320e-02	7	false	smoothSolver	6.905600e-02	4.898210e-03	3	true	smoothSolver	1.920160e-02	1.214750e-03	3	true	GAMG	1.245250e-01	1.115820e-03	10	true
7             	smoothSolver	2.599030e-01	2.307880e-02	7	3.882880e-01	3.090220e-02	7	2.636040e-01	2.232740e-02	7	false	smoothSolver	7.193420e-02	4.830220e-03	3	true	smoothSolver	1.785790e-02	1.054460e-03	3	true	GAMG	1.310750e-01	9.796690e-04	9	true
8             	smoothSolver	2.556820e-01	2.307010e-02	7	3.839220e-01	3.080490e-02	7	2.514350e-01	2.098440e-02	7	false	smoothSolver	7.415990e-02	4.763240e-03	3	true	smoothSolver	1.695930e-02	9.568120e-04	3	true	GAMG	1.258430e-01	1.047300e-03	9	true
9             	smoothSolver	2.515090e-01	2.256400e-02	7	3.818210e-01	2.825020e-02	7	2.454370e-01	1.960900e-02	7	false	smoothSolver	7.170430e-02	4.230040e-03	3	true	smoothSolver	1.572520e-02	8.607200e-04	3	true	GAMG	1.307650e-01	1.088140e-03	9	true
10            	smoothSolver	2.381250e-01	2.088570e-02	7	3.706540e-01	3.516380e-02	6	2.450690e-01	1.911580e-02	7	false	smoothSolver	6.734870e-02	3.915960e-03	3	true	smoothSolver	1.464320e-02	8.368850e-04	3	true	GAMG	1.281690e-01	1.110410e-03	9	true
11            	smoothSolver	2.222040e-01	1.933290e-02	7	3.489920e-01	3.343670e-02	6	2.433680e-01	1.882650e-02	7	false	smoothSolver	6.366670e-02	3.696890e-03	3	true	smoothSolver	1.353930e-02	7.838300e-04	3	true	GAMG	1.176460e-01	1.025240e-03	9	true
12            	smoothSolver	1.990210e-01	1.724420e-02	7	3.347940e-01	3.199580e-02	6	2.337820e-01	1.773740e-02	7	false	smoothSolver	6.164190e-02	3.473110e-03	3	true	smoothSolver	1.251250e-02	7.075710e-04	3	true	GAMG	1.114650e-01	9.462940e-04	9	true
13            	smoothSolver	1.791080e-01	1.551310e-02	7	3.197760e-01	3.047480e-02	6	2.194380e-01	2.180690e-02	6	false	smoothSolver	5.861260e-02	3.188080e-03	3	true	smoothSolver	1.147870e-02	6.369040e-04	3	true	GAMG	1.041870e-01	8.783130e-04	9	true
14            	smoothSolver	1.603940e-01	1.383650e-02	7	3.046340e-01	3.015260e-02	6	2.021240e-01	1.509440e-02	7	false	smoothSolver	5.413840e-02	2.797220e-03	3	true	smoothSolver	1.058030e-02	5.692880e-04	3	true	GAMG	9.617660e-02	8.371380e-04	9	true
15            	smoothSolver	1.450040e-01	1.243230e-02	7	2.907750e-01	2.275890e-02	7	1.836660e-01	1.408570e-02	7	false	smoothSolver	5.021540e-02	2.514890e-03	3	true	smoothSolver	9.703310e-03	5.185910e-04	3	true	GAMG	9.152530e-02	7.144000e-04	9	true
16            	smoothSolver	1.304240e-01	1.119070e-02	7	2.783440e-01	2.221300e-02	7	1.678720e-01	1.285270e-02	7	false	smoothSolver	4.646450e-02	2.230000e-03	3	true	smoothSolver	8.777590e-03	4.752210e-04	3	true	GAMG	8.789570e-02	8.061270e-04	8	true
17            	smoothSolver	1.174470e-01	1.009900e-02	7	2.672650e-01	2.142960e-02	7	1.549510e-01	1.176820e-02	7	false	smoothSolver	4.333030e-02	2.062350e-03	3	true	smoothSolver	8.079700e-03	4.487850e-04	3	true	GAMG	8.582140e-02	8.067810e-04	8	true
18            	smoothSolver	1.060880e-01	9.168510e-03	7	2.578930e-01	2.041680e-02	7	1.444770e-01	1.093620e-02	7	false	smoothSolver	4.013110e-02	1.899700e-03	3	true	smoothSolver	7.320340e-03	4.066180e-04	3	true	GAMG	8.343830e-02	6.893810e-04	9	true
19            	smoothSolver	9.672790e-02	8.302550e-03	7	2.463420e-01	1.910040e-02	7	1.372100e-01	1.038970e-02	7	false	smoothSolver	3.761880e-02	1.769460e-03	3	true	smoothSolver	6.609400e-03	3.692470e-04	3	true	GAMG	8.034210e-02	7.663560e-04	9	true
20            	smoothSolver	8.949720e-02	7.519140e-03	7	2.333180e-01	1.767000e-02	7	1.310280e-01	9.949670e-03	7	false	smoothSolver	3.576960e-02	1.673390e-03	3	true	smoothSolver	6.010800e-03	3.319700e-04	3	true	GAMG	7.741560e-02	6.072410e-04	10	true
21            	smoothSolver	8.466640e-02	6.809630e-03	7	2.209720e-01	1.639060e-02	7	1.254390e-01	9.565330e-03	7	false	smoothSolver	3.481350e-02	1.623650e-03	3	true	smoothSolver	5.596100e-03	3.032090e-04	3	true	GAMG	7.565550e-02	7.043100e-04	9	true
22            	smoothSolver	8.168250e-02	6.123430e-03	7	2.157250e-01	2.098530e-02	6	1.223660e-01	9.119250e-03	7	false	smoothSolver	3.456700e-02	1.622630e-03	3	true	smoothSolver	5.248500e-03	2.804840e-04	3	true	GAMG	7.347480e-02	6.194540e-04	9	true
23            	smoothSolver	7.968190e-02	7.521800e-03	6	2.156380e-01	2.065690e-02	6	1.215650e-01	1.163190e-02	6	false	smoothSolver	3.514350e-02	1.660960e-03	3	true	smoothSolver	4.965220e-03	2.622290e-04	3	true	GAMG	7.173530e-02	5.577710e-04	9	true
24            	smoothSolver	7.877100e-02	7.000670e-03	6	2.136360e-01	2.048120e-02	6	1.224120e-01	1.123960e-02	6	false	smoothSolver	3.654400e-02	1.688620e-03	3	true	smoothSolver	4.784830e-03	2.445140e-04	3	true	GAMG	7.135220e-02	5.437390e-04	9	true
25            	smoothSolver	7.790630e-02	6.578880e-03	6	2.101940e-01	2.004720e-02	6	1.239050e-01	1.122960e-02	6	false	smoothSolver	3.779280e-02	1.667040e-03	3	true	smoothSolver	4.531990e-03	2.244950e-04	3	true	GAMG	7.239020e-02	7.026580e-04	8	true
26            	smoothSolver	7.653720e-02	6.186210e-03	6	2.095830e-01	2.002710e-02	6	1.270260e-01	1.164960e-02	6	false	smoothSolver	3.810400e-02	1.621550e-03	3	true	smoothSolver	4.212710e-03	2.038690e-04	3	true	GAMG	7.383990e-02	5.211710e-04	9	true
27            	smoothSolver	7.428860e-02	5.691980e-03	6	2.089560e-01	1.973090e-02	6	1.306100e-01	1.215100e-02	6	false	smoothSolver	3.753700e-02	1.582520e-03	3	true	smoothSolver	3.919780e-03	1.830300e-04	3	true	GAMG	7.523220e-02	5.994730e-04	9	true
28            	smoothSolver	7.153450e-02	5.186220e-03	6	2.071310e-01	1.926400e-02	6	1.343030e-01	1.246880e-02	6	false	smoothSolver	3.644600e-02	1.531520e-03	3	true	smoothSolver	3.629420e-03	1.662710e-04	3	true	GAMG	7.702670e-02	5.811030e-04	9	true
29            	smoothSolver	6.814820e-02	6.574780e-03	5	2.059140e-01	1.930220e-02	6	1.356400e-01	1.248230e-02	6	false	smoothSolver	3.502980e-02	1.496890e-03	3	true	smoothSolver	3.309620e-03	1.533720e-04	3	true	GAMG	7.796510e-02	7.292990e-04	8	true
30            	smoothSolver	6.439160e-02	6.098980e-03	5	1.964750e-01	1.916690e-02	6	1.325260e-01	1.228670e-02	6	false	smoothSolver	3.324600e-02	1.464490e-03	3	true	smoothSolver	3.018080e-03	1.439490e-04	3	true	GAMG	7.927820e-02	7.083290e-04	8	true
31            	smoothSolver	6.013070e-02	5.696030e-03	5	1.796900e-01	1.379930e-02	7	1.260370e-01	1.200840e-02	6	false	smoothSolver	3.103000e-02	1.413410e-03	3	true	smoothSolver	2.767800e-03	1.338730e-04	3	true	GAMG	8.072240e-02	7.128310e-04	8	true
32            	smoothSolver	5.616110e-02	5.414220e-03	5	1.634960e-01	1.300650e-02	7	1.204770e-01	1.178170e-02	6	false	smoothSolver	2.916490e-02	1.370390e-03	3	true	smoothSolver	2.560030e-03	1.253490e-04	3	true	GAMG	8.116850e-02	7.244840e-04	8	true
33            	smoothSolver	5.242040e-02	5.191190e-03	5	1.542510e-01	1.241490e-02	7	1.188160e-01	1.174810e-02	6	false	smoothSolver	2.741810e-02	1.346230e-03	3	true	smoothSolver	2.365210e-03	1.179990e-04	3	true	GAMG	8.073920e-02	7.831810e-04	8	true
34            	smoothSolver	4.861190e-02	3.601010e-03	6	1.498390e-01	1.198690e-02	7	1.185910e-01	1.181750e-02	6	false	smoothSolver	2.605710e-02	1.320960e-03	3	true	smoothSolver	2.183230e-03	1.104570e-04	3	true	GAMG	7.962350e-02	6.413860e-04	9	true
35            	smoothSolver	4.483150e-02	3.426440e-03	6	1.466630e-01	1.168580e-02	7	1.192390e-01	1.181260e-02	6	false	smoothSolver	2.473200e-02	1.296100e-03	3	true	smoothSolver	2.003610e-03	1.037190e-04	3	true	GAMG	7.856800e-02	6.434000e-04	9	true
36            	smoothSolver	4.135580e-02	3.282820e-03	6	1.431950e-01	1.144640e-02	7	1.185800e-01	1.163520e-02	6	false	smoothSolver	2.350540e-02	1.269820e-03	3	true	smoothSolver	1.841620e-03	9.666460e-05	3	true	GAMG	7.740720e-02	6.019060e-04	9	true
37            	smoothSolver	3.842870e-02	3.114860e-03	6	1.400630e-01	1.130520e-02	7	1.170260e-01	1.138520e-02	6	false	smoothSolver	2.248040e-02	1.252710e-03	3	true	smoothSolver	1.694360e-03	9.021800e-05	3	true	GAMG	7.623030e-02	7.506990e-04	8	true
38            	smoothSolver	3.579070e-02	2.929820e-03	6	1.381270e-01	1.124250e-02	7	1.152060e-01	1.114790e-02	6	false	smoothSolver	2.151860e-02	1.237110e-03	3	true	smoothSolver	1.555970e-03	8.439930e-05	3	true	GAMG	7.512470e-02	7.462000e-04	8	true
39            	smoothSolver	3.312210e-02	2.770620e-03	6	1.376330e-01	1.123570e-02	7	1.123470e-01	1.096820e-02	6	false	smoothSolver	2.056900e-02	1.220320e-03	3	true	smoothSolver	1.433770e-03	7.890230e-05	3	true	GAMG	7.362860e-02	7.340860e-04	8	true
40            	smoothSolver	3.027500e-02	2.625100e-03	6	1.377900e-01	1.134070e-02	7	1.084050e-01	1.081490e-02	6	false	smoothSolver	1.967110e-02	1.206310e-03	3	true	smoothSolver	1.320180e-03	7.413080e-05	3	true	GAMG	7.178250e-02	7.025440e-04	8	true
41            	smoothSolver	2.749540e-02	2.484110e-03	6	1.369170e-01	1.158700e-02	7	1.027770e-01	7.885200e-03	7	false	smoothSolver	1.881240e-02	1.201390e-03	3	true	smoothSolver	1.220480e-03	7.024770e-05	3	true	GAMG	6.945470e-02	6.783630e-04	8	true
42            	smoothSolver	2.519930e-02	2.360720e-03	6	1.337120e-01	1.175560e-02	7	9.646160e-02	7.594040e-03	7	false	smoothSolver	1.802080e-02	1.205030e-03	3	true	smoothSolver	1.136820e-03	6.696810e-05	3	true	GAMG	6.712660e-02	6.545260e-04	8	true
43            	smoothSolver	2.349440e-02	2.256800e-03	6	1.233530e-01	1.112080e-02	7	9.082170e-02	7.285570e-03	7	false	smoothSolver	1.735660e-02	1.212210e-03	3	true	smoothSolver	1.062970e-03	6.396330e-05	3	true	GAMG	6.489150e-02	6.180000e-04	8	true
44            	smoothSolver	2.199750e-02	2.167860e-03	6	1.130240e-01	1.027820e-02	7	8.589120e-02	7.001220e-03	7	false	smoothSolver	1.678870e-02	1.221290e-03	3	true	smoothSolver	1.002170e-03	6.132490e-05	3	true	GAMG	6.292740e-02	5.947040e-04	8	true
45            	smoothSolver	2.058590e-02	1.562900e-03	7	1.038480e-01	9.490020e-03	7	8.166280e-02	6.755570e-03	7	false	smoothSolver	1.628540e-02	1.229410e-03	3	true	smoothSolver	9.483800e-04	5.894490e-05	3	true	GAMG	6.110550e-02	5.804880e-04	8	true
46            	smoothSolver	1.913740e-02	1.486700e-03	7	9.643410e-02	8.917550e-03	7	7.832910e-02	6.572400e-03	7	false	smoothSolver	1.578240e-02	1.228920e-03	3	true	smoothSolver	8.968410e-04	5.675400e-05	3	true	GAMG	5.955280e-02	5.684300e-04	8	true
47            	smoothSolver	1.783890e-02	1.412430e-03	7	9.049990e-02	8.436470e-03	7	7.518170e-02	6.412930e-03	7	false	smoothSolver	1.526480e-02	1.218470e-03	3	true	smoothSolver	8.456420e-04	5.458270e-05	3	true	GAMG	5.791720e-02	5.506970e-04	8	true
48            	smoothSolver	1.669800e-02	1.344580e-03	7	8.537280e-02	8.010040e-03	7	7.222470e-02	6.267470e-03	7	false	smoothSolver	1.472660e-02	1.200690e-03	3	true	smoothSolver	8.003140e-04	5.241380e-05	3	true	GAMG	5.654190e-02	5.426530e-04	8	true
49            	smoothSolver	1.574970e-02	1.281510e-03	7	8.132560e-02	7.649140e-03	7	6.982450e-02	6.130110e-03	7	false	smoothSolver	1.418220e-02	1.177000e-03	3	true	smoothSolver	7.606010e-04	5.055650e-05	3	true	GAMG	5.541180e-02	5.460370e-04	8	true
50            	smoothSolver	1.491630e-02	1.222650e-03	7	7.851310e-02	7.396210e-03	7	6.809210e-02	6.024880e-03	7	false	smoothSolver	1.367120e-02	1.150610e-03	3	true	smoothSolver	7.270800e-04	4.884760e-05	3	true	GAMG	5.458050e-02	4.225920e-04	9	true
51            	smoothSolver	1.416750e-02	1.169860e-03	7	7.680440e-02	7.259920e-03	7	6.678310e-02	5.974110e-03	7	false	smoothSolver	1.318400e-02	1.124500e-03	3	true	smoothSolver	6.962400e-04	4.732120e-05	3	true	GAMG	5.405060e-02	4.410600e-04	9	true
52            	smoothSolver	1.352770e-02	1.125550e-03	7	7.599520e-02	7.213800e-03	7	6.569980e-02	5.980960e-03	7	false	smoothSolver	1.271950e-02	1.098350e-03	3	true	smoothSolver	6.690160e-04	4.595910e-05	3	true	GAMG	5.371690e-02	4.607490e-04	9	true
53            	smoothSolver	1.299390e-02	1.090000e-03	7	7.565930e-02	7.243630e-03	7	6.479070e-02	6.039660e-03	7	false	smoothSolver	1.229120e-02	1.073160e-03	3	true	smoothSolver	6.427270e-04	4.452850e-05	3	true	GAMG	5.333660e-02	4.696750e-04	9	true
54            	smoothSolver	1.251140e-02	1.061390e-03	7	7.562410e-02	7.334740e-03	7	6.404340e-02	6.138730e-03	7	false	smoothSolver	1.190490e-02	1.048620e-03	3	true	smoothSolver	6.187160e-04	4.310180e-05	3	true	GAMG	5.281050e-02	4.686500e-04	9	true
55            	smoothSolver	1.209460e-02	1.039520e-03	7	7.544340e-02	7.472140e-03	7	6.341220e-02	6.257730e-03	7	false	smoothSolver	1.153830e-02	1.024830e-03	3	true	smoothSolver	5.944230e-04	4.166390e-05	3	true	GAMG	5.217550e-02	4.700490e-04	9	true
56            	smoothSolver	1.170990e-02	1.023000e-03	7	7.521250e-02	5.828360e-03	8	6.291980e-02	4.866130e-03	8	false	smoothSolver	1.119690e-02	1.001500e-03	3	true	smoothSolver	5.698300e-04	4.026120e-05	3	true	GAMG	5.173290e-02	4.685450e-04	9	true
57            	smoothSolver	1.139240e-02	1.012600e-03	7	7.472950e-02	5.918660e-03	8	6.252190e-02	4.937740e-03	8	false	smoothSolver	1.088350e-02	9.797270e-04	3	true	smoothSolver	5.477420e-04	3.893900e-05	3	true	GAMG	5.102000e-02	4.575020e-04	9	true
58            	smoothSolver	1.108760e-02	1.002340e-03	7	7.390990e-02	5.979070e-03	8	6.234640e-02	5.018080e-03	8	false	smoothSolver	1.058550e-02	9.583490e-04	3	true	smoothSolver	5.256420e-04	3.759000e-05	3	true	GAMG	5.022700e-02	4.425890e-04	9	true
59            	smoothSolver	1.078750e-02	9.923830e-04	7	7.206080e-02	5.927410e-03	8	6.227710e-02	5.094940e-03	8	false	smoothSolver	1.029540e-02	9.373170e-04	3	true	smoothSolver	5.041010e-04	3.628560e-05	3	true	GAMG	4.944030e-02	4.277030e-04	9	true
60            	smoothSolver	1.049700e-02	9.823030e-04	7	6.934490e-02	5.762400e-03	8	6.221790e-02	5.165880e-03	8	false	smoothSolver	1.000970e-02	9.165150e-04	3	true	smoothSolver	4.824080e-04	3.496460e-05	3	true	GAMG	4.868140e-02	4.157330e-04	9	true
61            	smoothSolver	1.019730e-02	9.726610e-04	7	6.649880e-02	5.558820e-03	8	6.214720e-02	5.230490e-03	8	false	smoothSolver	9.735000e-03	8.961970e-04	3	true	smoothSolver	4.608720e-04	3.360960e-05	3	true	GAMG	4.783690e-02	4.052980e-04	9	true
62            	smoothSolver	9.895850e-03	9.622050e-04	7	6.382700e-02	5.351860e-03	8	6.189630e-02	5.281430e-03	8	false	smoothSolver	9.473030e-03	8.761860e-04	3	true	smoothSolver	4.403600e-04	3.233640e-05	3	true	GAMG	4.698570e-02	3.908480e-04	9	true
63            	smoothSolver	9.611520e-03	9.520460e-04	7	6.108890e-02	5.149480e-03	8	6.107900e-02	5.290010e-03	8	false	smoothSolver	9.222770e-03	8.562270e-04	3	true	smoothSolver	4.211710e-04	3.112140e-05	3	true	GAMG	4.606970e-02	3.733120e-04	9	true
64            	smoothSolver	9.341660e-03	7.207590e-04	8	5.830060e-02	4.946420e-03	8	5.934970e-02	5.217300e-03	8	false	smoothSolver	8.985290e-03	8.363670e-04	3	true	smoothSolver	4.043700e-04	3.003820e-05	3	true	GAMG	4.523760e-02	3.576760e-04	9	true
65            	smoothSolver	9.088930e-03	7.134420e-04	8	5.573580e-02	4.767430e-03	8	5.763580e-02	5.153120e-03	8	false	smoothSolver	8.759740e-03	8.174000e-04	3	true	smoothSolver	3.881880e-04	2.900870e-05	3	true	GAMG	4.426730e-02	3.428600e-04	9	true
66            	smoothSolver	8.870020e-03	7.082100e-04	8	5.305890e-02	4.571540e-03	8	5.577970e-02	5.063790e-03	8	false	smoothSolver	8.547970e-03	7.999010e-04	3	true	smoothSolver	3.729190e-04	2.803780e-05	3	true	GAMG	4.341410e-02	3.377200e-04	9	true
67            	smoothSolver	8.664280e-03	7.043320e-04	8	5.043840e-02	4.378660e-03	8	5.392510e-02	4.962340e-03	8	false	smoothSolver	8.351180e-03	7.837270e-04	3	true	smoothSolver	3.587970e-04	2.710520e-05	3	true	GAMG	4.261580e-02	3.368800e-04	9	true
68            	smoothSolver	8.478000e-03	7.013350e-04	8	4.807700e-02	4.197330e-03	8	5.219290e-02	4.849980e-03	8	false	smoothSolver	8.169670e-03	7.687630e-04	3	true	smoothSolver	3.455810e-04	2.621000e-05	3	true	GAMG	4.185540e-02	3.357470e-04	9	true
69            	smoothSolver	8.320000e-03	6.992210e-04	8	4.609380e-02	4.030250e-03	8	5.068280e-02	4.734530e-03	8	false	smoothSolver	8.002630e-03	7.550650e-04	3	true	smoothSolver	3.334830e-04	2.538360e-05	3	true	GAMG	4.112150e-02	3.334570e-04	9	true
70            	smoothSolver	8.213030e-03	6.981630e-04	8	4.452410e-02	3.871900e-03	8	4.948330e-02	4.618700e-03	8	false	smoothSolver	7.845200e-03	7.419570e-04	3	true	smoothSolver	3.224310e-04	2.465090e-05	3	true	GAMG	4.037710e-02	3.271710e-04	9	true
71            	smoothSolver	8.141760e-03	6.988210e-04	8	4.339370e-02	3.728600e-03	8	4.853400e-02	4.500350e-03	8	false	smoothSolver	7.691940e-03	7.290990e-04	3	true	smoothSolver	3.123700e-04	2.396150e-05	3	true	GAMG	3.957360e-02	3.174780e-04	9	true
72            	smoothSolver	8.108280e-03	7.004310e-04	8	4.264910e-02	3.606810e-03	8	4.781090e-02	4.386180e-03	8	false	smoothSolver	7.542320e-03	7.163740e-04	3	true	smoothSolver	3.031410e-04	2.332150e-05	3	true	GAMG	3.870840e-02	3.066990e-04	9	true
73            	smoothSolver	8.097800e-03	7.014780e-04	8	4.230660e-02	3.516820e-03	8	4.730450e-02	4.285890e-03	8	false	smoothSolver	7.400060e-03	7.039780e-04	3	true	smoothSolver	2.946170e-04	2.272370e-05	3	true	GAMG	3.790140e-02	2.991200e-04	9	true
74            	smoothSolver	8.093510e-03	7.010520e-04	8	4.228630e-02	3.461750e-03	8	4.699670e-02	4.205490e-03	8	false	smoothSolver	7.267230e-03	6.921310e-04	3	true	smoothSolver	2.866790e-04	2.216160e-05	3	true	GAMG	3.724230e-02	2.984190e-04	9	true
75            	smoothSolver	8.086050e-03	6.988620e-04	8	4.255450e-02	3.442290e-03	8	4.682490e-02	4.134960e-03	8	false	smoothSolver	7.142000e-03	6.809050e-04	3	true	smoothSolver	2.792720e-04	2.165940e-05	3	true	GAMG	3.668250e-02	3.039340e-04	9	true
76            	smoothSolver	8.076920e-03	6.952760e-04	8	4.295450e-02	3.447120e-03	8	4.670890e-02	4.063630e-03	8	false	smoothSolver	7.024050e-03	6.705510e-04	3	true	smoothSolver	2.723420e-04	2.119230e-05	3	true	GAMG	3.621670e-02	3.147610e-04	9	true
77            	smoothSolver	8.064960e-03	6.898880e-04	8	4.335590e-02	3.450520e-03	8	4.657410e-02	3.984560e-03	8	false	smoothSolver	6.914610e-03	6.614050e-04	3	true	smoothSolver	2.658880e-04	2.077650e-05	3	true	GAMG	3.593570e-02	3.253960e-04	9	true
78            	smoothSolver	8.048520e-03	6.818200e-04	8	4.369640e-02	3.433670e-03	8	4.635580e-02	3.894710e-03	8	false	smoothSolver	6.813810e-03	6.530340e-04	3	true	smoothSolver	2.595640e-04	2.035450e-05	3	true	GAMG	3.568950e-02	3.385660e-04	9	true
79            	smoothSolver	8.033030e-03	6.712850e-04	8	4.395730e-02	3.394860e-03	8	4.598860e-02	3.794400e-03	8	false	smoothSolver	6.722910e-03	6.452720e-04	3	true	smoothSolver	2.534050e-04	1.990600e-05	3	true	GAMG	3.544650e-02	3.529850e-04	9	true
80            	smoothSolver	8.013060e-03	6.587540e-04	8	4.407070e-02	4.406270e-03	7	4.545860e-02	3.681960e-03	8	false	smoothSolver	6.642920e-03	6.379420e-04	3	true	smoothSolver	2.475160e-04	1.943150e-05	3	true	GAMG	3.512660e-02	2.866660e-04	10	true
81            	smoothSolver	7.982960e-03	6.440170e-04	8	4.430700e-02	4.387050e-03	7	4.466080e-02	3.550730e-03	8	false	smoothSolver	6.573410e-03	6.313280e-04	3	true	smoothSolver	2.417110e-04	1.896910e-05	3	true	GAMG	3.482760e-02	2.908150e-04	10	true
82            	smoothSolver	7.931110e-03	6.277500e-04	8	4.419730e-02	4.340810e-03	7	4.372400e-02	3.415500e-03	8	false	smoothSolver	6.507000e-03	6.251630e-04	3	true	smoothSolver	2.360580e-04	1.853350e-05	3	true	GAMG	3.449050e-02	2.885610e-04	10	true
83            	smoothSolver	7.869500e-03	6.109550e-04	8	4.385110e-02	4.273930e-03	7	4.269100e-02	3.287000e-03	8	false	smoothSolver	6.444230e-03	6.195020e-04	3	true	smoothSolver	2.307190e-04	1.811310e-05	3	true	GAMG	3.400640e-02	2.827960e-04	10	true
84            	smoothSolver	7.806410e-03	5.955240e-04	8	4.323210e-02	4.175230e-03	7	4.161000e-02	3.169950e-03	8	false	smoothSolver	6.379390e-03	6.142030e-04	3	true	smoothSolver	2.255580e-04	1.768850e-05	3	true	GAMG	3.338300e-02	2.823090e-04	10	true
85            	smoothSolver	7.749610e-03	7.686890e-04	7	4.241160e-02	4.045810e-03	7	4.056610e-02	4.044800e-03	7	false	smoothSolver	6.308570e-03	6.084570e-04	3	true	smoothSolver	2.199220e-04	1.722360e-05	3	true	GAMG	3.258780e-02	2.862790e-04	10	true
86            	smoothSolver	7.709470e-03	7.535330e-04	7	4.109420e-02	3.864880e-03	7	3.967020e-02	3.939520e-03	7	false	smoothSolver	6.236600e-03	6.022190e-04	3	true	smoothSolver	2.145820e-04	1.676360e-05	3	true	GAMG	3.200120e-02	2.905680e-04	10	true
87            	smoothSolver	7.689270e-03	7.385830e-04	7	3.988790e-02	3.710010e-03	7	3.875550e-02	3.842550e-03	7	false	smoothSolver	6.162700e-03	5.952740e-04	3	true	smoothSolver	2.094030e-04	1.631250e-05	3	true	GAMG	3.118750e-02	2.865910e-04	10	true
88            	smoothSolver	7.654250e-03	7.222820e-04	7	3.859120e-02	3.559980e-03	7	3.774040e-02	3.757480e-03	7	false	smoothSolver	6.088390e-03	5.880840e-04	3	true	smoothSolver	2.044040e-04	1.587700e-05	3	true	GAMG	3.012230e-02	2.756240e-04	10	true
89            	smoothSolver	7.590240e-03	7.026370e-04	7	3.714420e-02	3.406190e-03	7	3.649080e-02	2.777410e-03	8	false	smoothSolver	6.012900e-03	5.809320e-04	3	true	smoothSolver	1.997490e-04	1.548310e-05	3	true	GAMG	2.891400e-02	2.640390e-04	10	true
90            	smoothSolver	7.499220e-03	6.805250e-04	7	3.573620e-02	3.254280e-03	7	3.454870e-02	2.634950e-03	8	false	smoothSolver	5.933580e-03	5.737190e-04	3	true	smoothSolver	1.947480e-04	1.508890e-05	3	true	GAMG	2.726530e-02	2.482460e-04	10	true
91            	smoothSolver	7.381540e-03	6.553770e-04	7	3.423590e-02	3.103450e-03	7	3.257570e-02	2.488830e-03	8	false	smoothSolver	5.849430e-03	5.664930e-04	3	true	smoothSolver	1.889950e-04	1.468570e-05	3	true	GAMG	2.566330e-02	2.316830e-04	10	true
92            	smoothSolver	7.236450e-03	6.293250e-04	7	3.270920e-02	2.982420e-03	7	3.068510e-02	2.345360e-03	8	false	smoothSolver	5.764730e-03	5.593280e-04	3	true	smoothSolver	1.826820e-04	1.427330e-05	3	true	GAMG	2.419180e-02	2.139000e-04	10	true
93            	smoothSolver	7.071470e-03	6.043940e-04	7	3.137610e-02	2.908630e-03	7	2.895450e-02	2.210240e-03	8	false	smoothSolver	5.679850e-03	5.522360e-04	3	true	smoothSolver	1.763470e-04	1.386320e-05	3	true	GAMG	2.289830e-02	1.885250e-04	10	true
94            	smoothSolver	6.892440e-03	5.804920e-04	7	3.018130e-02	2.870610e-03	7	2.739970e-02	2.096160e-03	8	false	smoothSolver	5.596420e-03	5.456800e-04	3	true	smoothSolver	1.702400e-04	1.347980e-05	3	true	GAMG	2.176280e-02	2.124840e-04	9	true
95            	smoothSolver	6.698980e-03	5.573740e-04	7	2.898430e-02	2.844340e-03	7	2.601550e-02	2.016470e-03	8	false	smoothSolver	5.517180e-03	5.399800e-04	3	true	smoothSolver	1.645850e-04	1.314780e-05	3	true	GAMG	2.066380e-02	1.802330e-04	9	true
96            	smoothSolver	6.493480e-03	5.348740e-04	7	2.773070e-02	2.126190e-03	8	2.472780e-02	1.959310e-03	8	false	smoothSolver	5.441820e-03	5.351060e-04	3	true	smoothSolver	1.592020e-04	1.285250e-05	3	true	GAMG	1.954500e-02	1.911100e-04	8	true
97            	smoothSolver	6.292860e-03	5.142250e-04	7	2.621850e-02	2.043290e-03	8	2.348260e-02	1.904180e-03	8	false	smoothSolver	5.371620e-03	5.307220e-04	3	true	smoothSolver	1.541490e-04	1.256550e-05	3	true	GAMG	1.836150e-02	1.668300e-04	8	true
98            	smoothSolver	6.107130e-03	4.926220e-04	7	2.486250e-02	1.946720e-03	8	2.221840e-02	1.834830e-03	8	false	smoothSolver	5.304260e-03	5.264210e-04	3	true	smoothSolver	1.492900e-04	1.228560e-05	3	true	GAMG	1.723660e-02	1.501750e-04	8	true
99            	smoothSolver	5.943430e-03	4.700820e-04	7	2.353480e-02	1.833660e-03	8	2.093170e-02	1.747530e-03	8	false	smoothSolver	5.235200e-03	5.215900e-04	3	true	smoothSolver	1.446810e-04	1.198590e-05	3	true	GAMG	1.632320e-02	1.472010e-04	8	true
100           	smoothSolver	5.814900e-03	4.488020e-04	7	2.233190e-02	1.719400e-03	8	1.967680e-02	1.646880e-03	8	false	smoothSolver	5.168580e-03	5.160040e-04	3	true	smoothSolver	1.406260e-04	1.168200e-05	3	true	GAMG	1.569610e-02	1.493150e-04	8	true
101           	smoothSolver	5.717330e-03	4.326180e-04	7	2.137840e-02	1.639940e-03	8	1.848480e-02	1.548560e-03	8	false	smoothSolver	5.097560e-03	5.096960e-04	3	true	smoothSolver	1.368200e-04	1.139000e-05	3	true	GAMG	1.518790e-02	1.491350e-04	8	true
102           	smoothSolver	5.615870e-03	4.208450e-04	7	2.063560e-02	1.600860e-03	8	1.743670e-02	1.467550e-03	8	false	smoothSolver	5.032030e-03	2.348040e-04	4	true	smoothSolver	1.333080e-04	1.115230e-05	3	true	GAMG	1.460100e-02	1.441690e-04	8	true
103           	smoothSolver	5.475090e-03	4.100490e-04	7	1.997360e-02	1.576850e-03	8	1.647130e-02	1.405940e-03	8	false	smoothSolver	4.968860e-03	2.332010e-04	4	true	smoothSolver	1.299370e-04	1.097070e-05	3	true	GAMG	1.395030e-02	1.368410e-04	8	true
104           	smoothSolver	5.280550e-03	3.976820e-04	7	1.924840e-02	1.539100e-03	8	1.557580e-02	1.358770e-03	8	false	smoothSolver	4.899980e-03	2.308180e-04	4	true	smoothSolver	1.268600e-04	1.078520e-05	3	true	GAMG	1.331490e-02	9.594650e-05	9	true
105           	smoothSolver	5.038920e-03	3.849780e-04	7	1.841670e-02	1.477300e-03	8	1.477660e-02	1.320670e-03	8	false	smoothSolver	4.826360e-03	2.279420e-04	4	true	smoothSolver	1.236730e-04	1.057880e-05	3	true	GAMG	1.271230e-02	9.735740e-05	9	true
106           	smoothSolver	4.769140e-03	3.732500e-04	7	1.756270e-02	1.401180e-03	8	1.406620e-02	1.283140e-03	8	false	smoothSolver	4.746050e-03	2.247200e-04	4	true	smoothSolver	1.201820e-04	1.033070e-05	3	true	GAMG	1.209610e-02	9.647740e-05	9	true
107           	smoothSolver	4.499750e-03	3.640640e-04	7	1.676900e-02	1.333150e-03	8	1.345460e-02	1.246600e-03	8	false	smoothSolver	4.658390e-03	2.209340e-04	4	true	smoothSolver	1.164360e-04	1.001290e-05	3	true	GAMG	1.150230e-02	9.023240e-05	9	true
108           	smoothSolver	4.247270e-03	3.575050e-04	7	1.610820e-02	1.293710e-03	8	1.306210e-02	1.230710e-03	8	false	smoothSolver	4.564320e-03	2.165080e-04	4	true	smoothSolver	1.125250e-04	9.657490e-06	3	true	GAMG	1.090620e-02	8.416140e-05	9	true
109           	smoothSolver	4.012570e-03	3.514880e-04	7	1.565470e-02	1.281230e-03	8	1.283310e-02	1.245240e-03	8	false	smoothSolver	4.477450e-03	2.121010e-04	4	true	smoothSolver	1.088420e-04	9.331500e-06	3	true	GAMG	1.038300e-02	1.005640e-04	8	true
110           	smoothSolver	3.797490e-03	3.460300e-04	7	1.521390e-02	1.272940e-03	8	1.275510e-02	9.897400e-04	9	false	smoothSolver	4.407010e-03	2.091740e-04	4	true	smoothSolver	1.058260e-04	9.114160e-06	3	true	GAMG	1.005600e-02	8.803290e-05	8	true
111           	smoothSolver	3.611460e-03	3.412700e-04	7	1.465980e-02	1.249790e-03	8	1.262780e-02	1.005630e-03	9	false	smoothSolver	4.347850e-03	2.079150e-04	4	true	smoothSolver	1.038040e-04	9.009290e-06	3	true	GAMG	9.684080e-03	7.863900e-05	8	true
112           	smoothSolver	3.439130e-03	3.348070e-04	7	1.399110e-02	1.203260e-03	8	1.248720e-02	1.011610e-03	9	false	smoothSolver	4.291870e-03	2.071190e-04	4	true	smoothSolver	1.023550e-04	8.944540e-06	3	true	GAMG	9.315150e-03	7.297210e-05	8	true
113           	smoothSolver	3.285280e-03	2.497390e-04	8	1.337740e-02	1.150400e-03	8	1.227770e-02	9.998000e-04	9	false	smoothSolver	4.228990e-03	2.058120e-04	4	true	smoothSolver	1.010570e-04	8.877400e-06	3	true	GAMG	8.998380e-03	6.787460e-05	8	true
114           	smoothSolver	3.154950e-03	2.457280e-04	8	1.310730e-02	1.125310e-03	8	1.207910e-02	9.745600e-04	9	false	smoothSolver	4.154330e-03	2.034620e-04	4	true	smoothSolver	9.945470e-05	8.743400e-06	3	true	GAMG	8.758970e-03	8.595360e-05	7	true
115           	smoothSolver	3.066050e-03	2.451680e-04	8	1.309110e-02	1.137330e-03	8	1.195190e-02	9.524640e-04	9	false	smoothSolver	4.081280e-03	2.000990e-04	4	true	smoothSolver	9.768980e-05	8.507950e-06	3	true	GAMG	8.572040e-03	8.063510e-05	7	true
116           	smoothSolver	3.000350e-03	2.463550e-04	8	1.326840e-02	1.181550e-03	8	1.193050e-02	9.518270e-04	9	false	smoothSolver	4.027670e-03	1.967020e-04	4	true	smoothSolver	9.586610e-05	8.281320e-06	3	true	GAMG	8.454070e-03	7.995570e-05	7	true
117           	smoothSolver	2.933270e-03	2.463190e-04	8	1.346150e-02	1.224450e-03	8	1.196210e-02	9.602340e-04	9	false	smoothSolver	3.989680e-03	1.944670e-04	4	true	smoothSolver	9.437020e-05	8.158020e-06	3	true	GAMG	8.374540e-03	8.196590e-05	7	true
118           	smoothSolver	2.861720e-03	2.432880e-04	8	1.352110e-02	1.245950e-03	8	1.194660e-02	9.574490e-04	9	false	smoothSolver	3.951260e-03	1.934500e-04	4	true	smoothSolver	9.322360e-05	8.091890e-06	3	true	GAMG	8.394800e-03	6.023940e-05	8	true
119           	smoothSolver	2.767220e-03	2.364460e-04	8	1.341750e-02	1.237190e-03	8	1.178970e-02	9.377140e-04	9	false	smoothSolver	3.906550e-03	1.925620e-04	4	true	smoothSolver	9.211640e-05	8.034830e-06	3	true	GAMG	8.496690e-03	6.285420e-05	8	true