# Solver information
# Time        	U_solver      	Ux_initial    	Ux_final      	Ux_iters      	Uy_initial    	Uy_final      	Uy_iters      	Uz_initial    	Uz_final      	Uz_iters      	U_converged   	k_solver      	k_initial     	k_final       	k_iters       	k_converged   	omega_solver  	omega_initial 	omega_final   	omega_iters   	omega_converged	p_solver      	p_initial     	p_final       	p_iters       	p_converged   
1             	smoothSolver	1.000000e+00	9.610950e-02	12	1.000000e+00	9.820270e-02	12	1.000000e+00	8.442040e-02	13	false	smoothSolver	1.000000e+00	6.037310e-02	4	true	smoothSolver	1.456770e-01	9.646100e-03	3	true	GAMG	1.000000e+00	6.226530e-03	10	true
2             	smoothSolver	3.865720e-01	3.763860e-02	10	7.874820e-01	6.249630e-02	11	6.078680e-01	5.351200e-02	11	false	smoothSolver	7.803020e-01	5.509950e-02	3	true	smoothSolver	7.020300e-02	5.071970e-03	5	true	GAMG	2.474960e-01	1.959550e-03	6	true
3             	smoothSolver	3.696990e-01	3.252800e-02	7	6.011730e-01	5.457030e-02	8	4.880510e-01	4.604550e-02	8	false	smoothSolver	8.694720e-02	6.493960e-03	3	true	smoothSolver	3.465620e-02	2.038110e-03	4	true	GAMG	4.665450e-01	4.272110e-03	9	true
4             	smoothSolver	4.069560e-01	4.011350e-02	6	5.600470e-01	4.671000e-02	7	4.622100e-01	3.561310e-02	7	false	smoothSolver	5.302540e-02	3.738510e-03	3	true	smoothSolver	2.502310e-02	1.606360e-03	3	true	GAMG	9.506240e-02	8.798810e-04	9	true
5             	smoothSolver	2.882260e-01	2.712000e-02	7	4.646550e-01	4.025370e-02	7	3.262870e-01	2.576560e-02	7	false	smoothSolver	4.898640e-02	3.753360e-03	3	true	smoothSolver	1.811540e-02	1.183660e-03	3	true	GAMG	1.017380e-01	8.890000e-04	9	true
6             	smoothSolver	2.380240e-01	2.181130e-02	7	4.164320e-01	3.047970e-02	7	2.833520e-01	2.219660e-02	7	false	smoothSolver	5.534650e-02	3.916790e-03	3	true	smoothSolver	1.549630e-02	9.714390e-04	3	true	GAMG	1.224980e-01	1.106630e-03	9	true
7             	smoothSolver	2.272930e-01	2.097590e-02	7	3.848430e-01	2.925260e-02	7	2.582100e-01	2.241090e-02	7	false	smoothSolver	6.232290e-02	4.150230e-03	3	true	smoothSolver	1.468500e-02	8.786600e-04	3	true	GAMG	1.263640e-01	9.233480e-04	9	true
8             	smoothSolver	2.266420e-01	2.178590e-02	7	3.789540e-01	3.045530e-02	7	2.491260e-01	2.123000e-02	7	false	smoothSolver	6.740510e-02	4.366260e-03	3	true	smoothSolver	1.416360e-02	8.074440e-04	3	true	GAMG	1.219760e-01	9.306870e-04	9	true
9             	smoothSolver	2.240530e-01	2.122640e-02	7	3.788210e-01	2.871800e-02	7	2.436520e-01	1.981160e-02	7	false	smoothSolver	6.722370e-02	4.112920e-03	3	true	smoothSolver	1.311410e-02	7.104620e-04	3	true	GAMG	1.253660e-01	1.037030e-03	9	true
10            	smoothSolver	2.138720e-01	1.989490e-02	7	3.693540e-01	3.584410e-02	6	2.433780e-01	1.946890e-02	7	false	smoothSolver	6.549950e-02	3.997820e-03	3	true	smoothSolver	1.246110e-02	7.013280e-04	3	true	GAMG	1.255390e-01	1.082630e-03	9	true
11            	smoothSolver	1.993540e-01	1.818010e-02	7	3.488680e-01	3.403550e-02	6	2.410310e-01	1.914830e-02	7	false	smoothSolver	6.283390e-02	3.846320e-03	3	true	smoothSolver	1.145430e-02	6.516670e-04	3	true	GAMG	1.172640e-01	1.023590e-03	9	true
12            	smoothSolver	1.794410e-01	1.596480e-02	7	3.333260e-01	3.263980e-02	6	2.337050e-01	1.818060e-02	7	false	smoothSolver	6.134500e-02	3.611890e-03	3	true	smoothSolver	1.052430e-02	5.972000e-04	3	true	GAMG	1.112190e-01	9.149600e-04	9	true
13            	smoothSolver	1.604070e-01	1.436160e-02	7	3.177180e-01	3.155710e-02	6	2.201020e-01	1.695730e-02	7	false	smoothSolver	5.916220e-02	3.357490e-03	3	true	smoothSolver	9.616060e-03	5.384160e-04	3	true	GAMG	1.033010e-01	8.485870e-04	9	true
14            	smoothSolver	1.445950e-01	1.313840e-02	7	3.012750e-01	2.292630e-02	7	2.020830e-01	1.564000e-02	7	false	smoothSolver	5.570290e-02	3.020450e-03	3	true	smoothSolver	8.832400e-03	4.959080e-04	3	true	GAMG	9.524740e-02	7.974010e-04	9	true
15            	smoothSolver	1.311120e-01	1.213050e-02	7	2.848910e-01	2.256780e-02	7	1.832000e-01	1.467530e-02	7	false	smoothSolver	5.288970e-02	2.729720e-03	3	true	smoothSolver	8.288980e-03	4.607160e-04	3	true	GAMG	9.166310e-02	7.073750e-04	9	true
16            	smoothSolver	1.190280e-01	1.101910e-02	7	2.728470e-01	2.246780e-02	7	1.662010e-01	1.361810e-02	7	false	smoothSolver	4.975960e-02	2.433820e-03	3	true	smoothSolver	7.608330e-03	4.267260e-04	3	true	GAMG	8.896200e-02	8.162930e-04	8	true
17            	smoothSolver	1.091050e-01	9.891320e-03	7	2.622520e-01	2.205090e-02	7	1.534570e-01	1.270840e-02	7	false	smoothSolver	4.711630e-02	2.243930e-03	3	true	smoothSolver	7.025690e-03	3.891260e-04	3	true	GAMG	8.726020e-02	8.271690e-04	8	true
18            	smoothSolver	1.006780e-01	8.993990e-03	7	2.548650e-01	2.099790e-02	7	1.459240e-01	1.195580e-02	7	false	smoothSolver	4.409880e-02	2.088790e-03	3	true	smoothSolver	6.397290e-03	3.574300e-04	3	true	GAMG	8.511320e-02	7.309950e-04	9	true
19            	smoothSolver	9.393570e-02	8.372320e-03	7	2.468640e-01	1.943370e-02	7	1.417350e-01	1.171160e-02	7	false	smoothSolver	4.152940e-02	1.999040e-03	3	true	smoothSolver	5.762460e-03	3.232670e-04	3	true	GAMG	8.200110e-02	7.795710e-04	9	true
20            	smoothSolver	8.825650e-02	7.898730e-03	7	2.354270e-01	1.797360e-02	7	1.384500e-01	1.153960e-02	7	false	smoothSolver	3.956370e-02	1.936240e-03	3	true	smoothSolver	5.297600e-03	2.986660e-04	3	true	GAMG	7.775550e-02	7.617450e-04	9	true
21            	smoothSolver	8.409850e-02	7.365430e-03	7	2.252800e-01	1.682820e-02	7	1.351830e-01	1.127540e-02	7	false	smoothSolver	3.865230e-02	1.918080e-03	3	true	smoothSolver	4.963800e-03	2.796560e-04	3	true	GAMG	7.459990e-02	7.267240e-04	9	true
22            	smoothSolver	8.187280e-02	6.778620e-03	7	2.235180e-01	2.213820e-02	6	1.327600e-01	1.085000e-02	7	false	smoothSolver	3.866320e-02	1.919840e-03	3	true	smoothSolver	4.681130e-03	2.593790e-04	3	true	GAMG	7.279260e-02	6.592770e-04	9	true
23            	smoothSolver	8.163140e-02	6.243290e-03	7	2.256860e-01	2.223980e-02	6	1.322500e-01	1.030030e-02	7	false	smoothSolver	3.952330e-02	1.938030e-03	3	true	smoothSolver	4.480580e-03	2.422600e-04	3	true	GAMG	7.091700e-02	5.972390e-04	9	true
24            	smoothSolver	8.145350e-02	7.832690e-03	6	2.253710e-01	2.238670e-02	6	1.337050e-01	1.334010e-02	6	false	smoothSolver	4.061640e-02	1.932790e-03	3	true	smoothSolver	4.293340e-03	2.248020e-04	3	true	GAMG	7.002870e-02	5.927900e-04	9	true
25            	smoothSolver	8.113840e-02	7.397250e-03	6	2.235400e-01	1.663270e-02	7	1.344480e-01	1.330340e-02	6	false	smoothSolver	4.126420e-02	1.898570e-03	3	true	smoothSolver	4.056680e-03	2.064770e-04	3	true	GAMG	6.987160e-02	5.907640e-04	9	true
26            	smoothSolver	8.036130e-02	7.054700e-03	6	2.211690e-01	1.671980e-02	7	1.351990e-01	1.328650e-02	6	false	smoothSolver	4.154800e-02	1.847540e-03	3	true	smoothSolver	3.794940e-03	1.886550e-04	3	true	GAMG	7.061440e-02	6.396570e-04	9	true
27            	smoothSolver	7.858050e-02	6.764510e-03	6	2.179180e-01	1.667840e-02	7	1.361720e-01	1.328610e-02	6	false	smoothSolver	4.100800e-02	1.786760e-03	3	true	smoothSolver	3.559060e-03	1.724190e-04	3	true	GAMG	7.268020e-02	7.075450e-04	9	true
28            	smoothSolver	7.599700e-02	6.414050e-03	6	2.103010e-01	1.643180e-02	7	1.356360e-01	1.334970e-02	6	false	smoothSolver	3.996020e-02	1.728260e-03	3	true	smoothSolver	3.335510e-03	1.599190e-04	3	true	GAMG	7.597030e-02	6.626510e-04	9	true
29            	smoothSolver	7.343980e-02	6.050210e-03	6	1.984350e-01	1.581150e-02	7	1.362070e-01	1.357380e-02	6	false	smoothSolver	3.837200e-02	1.702220e-03	3	true	smoothSolver	3.057120e-03	1.491370e-04	3	true	GAMG	7.963630e-02	5.033030e-04	10	true
30            	smoothSolver	7.043800e-02	5.665230e-03	6	1.840780e-01	1.491270e-02	7	1.353760e-01	1.025350e-02	7	false	smoothSolver	3.619350e-02	1.694540e-03	3	true	smoothSolver	2.776810e-03	1.405850e-04	3	true	GAMG	8.359340e-02	7.479690e-04	8	true
31            	smoothSolver	6.641760e-02	5.329940e-03	6	1.709040e-01	1.418070e-02	7	1.281710e-01	1.003930e-02	7	false	smoothSolver	3.358740e-02	1.675300e-03	3	true	smoothSolver	2.534980e-03	1.332810e-04	3	true	GAMG	8.473610e-02	6.969690e-04	8	true
32            	smoothSolver	6.160360e-02	5.006730e-03	6	1.591010e-01	1.362570e-02	7	1.191600e-01	9.764340e-03	7	false	smoothSolver	3.126770e-02	1.641020e-03	3	true	smoothSolver	2.312900e-03	1.260330e-04	3	true	GAMG	8.369060e-02	6.906300e-04	8	true
33            	smoothSolver	5.646430e-02	4.734430e-03	6	1.494820e-01	1.323020e-02	7	1.117700e-01	9.430850e-03	7	false	smoothSolver	2.900350e-02	1.599500e-03	3	true	smoothSolver	2.099360e-03	1.177630e-04	3	true	GAMG	8.087410e-02	7.180030e-04	8	true
34            	smoothSolver	5.158260e-02	4.500660e-03	6	1.414610e-01	1.282540e-02	7	1.071660e-01	9.100080e-03	7	false	smoothSolver	2.691030e-02	1.550900e-03	3	true	smoothSolver	1.898030e-03	1.094840e-04	3	true	GAMG	7.919640e-02	7.337970e-04	8	true
35            	smoothSolver	4.716190e-02	4.257520e-03	6	1.350280e-01	1.244460e-02	7	1.037900e-01	8.819730e-03	7	false	smoothSolver	2.506660e-02	1.495420e-03	3	true	smoothSolver	1.722280e-03	1.006560e-04	3	true	GAMG	7.766630e-02	7.223200e-04	8	true
36            	smoothSolver	4.364900e-02	4.009710e-03	6	1.296540e-01	1.205800e-02	7	1.012650e-01	8.588630e-03	7	false	smoothSolver	2.366810e-02	1.441610e-03	3	true	smoothSolver	1.571450e-03	9.270740e-05	3	true	GAMG	7.655830e-02	7.184270e-04	8	true
37            	smoothSolver	4.100370e-02	3.764460e-03	6	1.257120e-01	1.174280e-02	7	9.961170e-02	8.335400e-03	7	false	smoothSolver	2.262640e-02	1.395250e-03	3	true	smoothSolver	1.444950e-03	8.567740e-05	3	true	GAMG	7.551840e-02	7.412450e-04	8	true
38            	smoothSolver	3.885460e-02	3.513110e-03	6	1.237490e-01	1.149640e-02	7	9.835510e-02	8.113010e-03	7	false	smoothSolver	2.179820e-02	1.351460e-03	3	true	smoothSolver	1.334080e-03	7.991240e-05	3	true	GAMG	7.512700e-02	5.844140e-04	9	true
39            	smoothSolver	3.708990e-02	3.287510e-03	6	1.228530e-01	1.130520e-02	7	9.753760e-02	7.979460e-03	7	false	smoothSolver	2.126600e-02	1.311150e-03	3	true	smoothSolver	1.224330e-03	7.414770e-05	3	true	GAMG	7.492850e-02	6.035940e-04	9	true
40            	smoothSolver	3.522430e-02	3.093670e-03	6	1.227370e-01	1.118400e-02	7	9.649080e-02	7.907840e-03	7	false	smoothSolver	2.071560e-02	1.268150e-03	3	true	smoothSolver	1.125950e-03	6.918980e-05	3	true	GAMG	7.456180e-02	5.905420e-04	9	true
41            	smoothSolver	3.296440e-02	2.939450e-03	6	1.213810e-01	1.114270e-02	7	9.473540e-02	7.853350e-03	7	false	smoothSolver	2.005390e-02	1.224130e-03	3	true	smoothSolver	1.038920e-03	6.432310e-05	3	true	GAMG	7.403080e-02	7.264980e-04	8	true
42            	smoothSolver	3.031500e-02	2.792950e-03	6	1.172450e-01	1.109230e-02	7	9.146010e-02	7.762620e-03	7	false	smoothSolver	1.918420e-02	1.185100e-03	3	true	smoothSolver	9.652060e-04	6.030140e-05	3	true	GAMG	7.288430e-02	6.530320e-04	8	true
43            	smoothSolver	2.778050e-02	2.636400e-03	6	1.118080e-01	1.091220e-02	7	8.744190e-02	7.606830e-03	7	false	smoothSolver	1.822210e-02	1.146870e-03	3	true	smoothSolver	9.036870e-04	5.712870e-05	3	true	GAMG	7.160240e-02	5.873700e-04	8	true
44            	smoothSolver	2.579450e-02	2.472410e-03	6	1.080380e-01	1.062370e-02	7	8.400150e-02	7.404700e-03	7	false	smoothSolver	1.726300e-02	1.105380e-03	3	true	smoothSolver	8.509460e-04	5.445660e-05	3	true	GAMG	7.031100e-02	5.528880e-04	8	true
45            	smoothSolver	2.433590e-02	2.317870e-03	6	1.063040e-01	1.036580e-02	7	8.209580e-02	7.231080e-03	7	false	smoothSolver	1.643850e-02	1.071630e-03	3	true	smoothSolver	8.080450e-04	5.238730e-05	3	true	GAMG	6.903730e-02	5.451290e-04	8	true
46            	smoothSolver	2.293620e-02	2.176360e-03	6	1.051570e-01	1.018200e-02	7	8.059270e-02	7.117690e-03	7	false	smoothSolver	1.571170e-02	1.050870e-03	3	true	smoothSolver	7.675780e-04	5.034290e-05	3	true	GAMG	6.771280e-02	5.463000e-04	8	true
47            	smoothSolver	2.146270e-02	2.053390e-03	6	1.029780e-01	9.998410e-03	7	7.848200e-02	6.982600e-03	7	false	smoothSolver	1.500790e-02	1.038040e-03	3	true	smoothSolver	7.289110e-04	4.873240e-05	3	true	GAMG	6.599080e-02	5.533060e-04	8	true
48            	smoothSolver	1.998150e-02	1.951280e-03	6	9.987020e-02	9.724370e-03	7	7.555700e-02	6.804280e-03	7	false	smoothSolver	1.434250e-02	1.032200e-03	3	true	smoothSolver	6.902580e-04	4.697430e-05	3	true	GAMG	6.417320e-02	5.617100e-04	8	true
49            	smoothSolver	1.858690e-02	1.391950e-03	7	9.608290e-02	9.370930e-03	7	7.238820e-02	6.612870e-03	7	false	smoothSolver	1.372120e-02	1.032810e-03	3	true	smoothSolver	6.547540e-04	4.547780e-05	3	true	GAMG	6.227840e-02	5.714040e-04	8	true
50            	smoothSolver	1.719600e-02	1.325120e-03	7	9.233720e-02	9.027800e-03	7	6.945070e-02	6.476970e-03	7	false	smoothSolver	1.314470e-02	1.035410e-03	3	true	smoothSolver	6.197880e-04	4.389210e-05	3	true	GAMG	6.064300e-02	5.738860e-04	8	true
51            	smoothSolver	1.590990e-02	1.267390e-03	7	8.824650e-02	8.626180e-03	7	6.676930e-02	6.371380e-03	7	false	smoothSolver	1.261040e-02	1.036490e-03	3	true	smoothSolver	5.894050e-04	4.237030e-05	3	true	GAMG	5.884640e-02	5.714130e-04	8	true
52            	smoothSolver	1.476830e-02	1.213260e-03	7	8.441390e-02	8.228070e-03	7	6.439870e-02	6.273210e-03	7	false	smoothSolver	1.212660e-02	1.034070e-03	3	true	smoothSolver	5.615120e-04	4.098960e-05	3	true	GAMG	5.723670e-02	5.645550e-04	8	true
53            	smoothSolver	1.382860e-02	1.162180e-03	7	8.096560e-02	7.868510e-03	7	6.226600e-02	6.170410e-03	7	false	smoothSolver	1.169290e-02	1.027040e-03	3	true	smoothSolver	5.349660e-04	3.959730e-05	3	true	GAMG	5.587790e-02	5.565810e-04	8	true
54            	smoothSolver	1.305150e-02	1.114960e-03	7	7.779890e-02	7.545560e-03	7	6.039480e-02	4.640050e-03	8	false	smoothSolver	1.130400e-02	1.016050e-03	3	true	smoothSolver	5.108100e-04	3.819370e-05	3	true	GAMG	5.475300e-02	4.300050e-04	9	true
55            	smoothSolver	1.240470e-02	1.073980e-03	7	7.490130e-02	7.283070e-03	7	5.848120e-02	4.559340e-03	8	false	smoothSolver	1.095060e-02	1.001960e-03	3	true	smoothSolver	4.889330e-04	3.682400e-05	3	true	GAMG	5.349060e-02	4.327530e-04	9	true
56            	smoothSolver	1.181090e-02	1.036250e-03	7	7.187940e-02	7.037120e-03	7	5.704070e-02	4.534030e-03	8	false	smoothSolver	1.062270e-02	9.862190e-04	3	true	smoothSolver	4.695360e-04	3.550200e-05	3	true	GAMG	5.244610e-02	4.337280e-04	9	true
57            	smoothSolver	1.127800e-02	1.001050e-03	7	6.876210e-02	6.805260e-03	7	5.610100e-02	4.534250e-03	8	false	smoothSolver	1.031590e-02	9.698530e-04	3	true	smoothSolver	4.522040e-04	3.434440e-05	3	true	GAMG	5.161400e-02	4.314010e-04	9	true
58            	smoothSolver	1.079400e-02	9.676970e-04	7	6.573540e-02	5.043420e-03	8	5.557540e-02	4.550020e-03	8	false	smoothSolver	1.003210e-02	9.520770e-04	3	true	smoothSolver	4.362520e-04	3.331290e-05	3	true	GAMG	5.084070e-02	4.282530e-04	9	true
59            	smoothSolver	1.035890e-02	9.354070e-04	7	6.254870e-02	4.854490e-03	8	5.545720e-02	4.597140e-03	8	false	smoothSolver	9.762650e-03	9.331600e-04	3	true	smoothSolver	4.222120e-04	3.233930e-05	3	true	GAMG	4.964980e-02	4.188340e-04	9	true
60            	smoothSolver	9.945420e-03	9.031780e-04	7	5.992940e-02	4.716470e-03	8	5.547310e-02	4.657020e-03	8	false	smoothSolver	9.502160e-03	9.134340e-04	3	true	smoothSolver	4.085780e-04	3.137970e-05	3	true	GAMG	4.842590e-02	4.017240e-04	9	true
61            	smoothSolver	9.550560e-03	8.730520e-04	7	5.768470e-02	4.606210e-03	8	5.557550e-02	4.717130e-03	8	false	smoothSolver	9.249910e-03	8.940520e-04	3	true	smoothSolver	3.953410e-04	3.042310e-05	3	true	GAMG	4.723220e-02	3.828550e-04	9	true
62            	smoothSolver	9.178020e-03	8.469360e-04	7	5.560730e-02	4.514470e-03	8	5.547240e-02	4.759360e-03	8	false	smoothSolver	9.002510e-03	8.752100e-04	3	true	smoothSolver	3.814310e-04	2.944330e-05	3	true	GAMG	4.605450e-02	3.627940e-04	9	true
63            	smoothSolver	8.821780e-03	8.261240e-04	7	5.363880e-02	4.431680e-03	8	5.468330e-02	4.735940e-03	8	false	smoothSolver	8.758840e-03	8.568740e-04	3	true	smoothSolver	3.676170e-04	2.848810e-05	3	true	GAMG	4.484500e-02	3.377560e-04	9	true
64            	smoothSolver	8.481340e-03	8.106230e-04	7	5.182920e-02	4.358630e-03	8	5.231400e-02	4.569080e-03	8	false	smoothSolver	8.518690e-03	8.385210e-04	3	true	smoothSolver	3.536370e-04	2.755570e-05	3	true	GAMG	4.366360e-02	4.100330e-04	8	true
65            	smoothSolver	8.153650e-03	7.988460e-04	7	5.021620e-02	4.302590e-03	8	4.947860e-02	4.356580e-03	8	false	smoothSolver	8.280540e-03	8.201120e-04	3	true	smoothSolver	3.397560e-04	2.662380e-05	3	true	GAMG	4.255490e-02	3.703320e-04	8	true
66            	smoothSolver	7.844730e-03	6.040740e-04	8	4.891150e-02	4.262190e-03	8	4.683570e-02	4.155880e-03	8	false	smoothSolver	8.048430e-03	8.015400e-04	3	true	smoothSolver	3.268450e-04	2.575060e-05	3	true	GAMG	4.145880e-02	3.398350e-04	8	true
67            	smoothSolver	7.546070e-03	5.954000e-04	8	4.805530e-02	4.258650e-03	8	4.464190e-02	4.000750e-03	8	false	smoothSolver	7.823400e-03	3.758750e-04	4	true	smoothSolver	3.133540e-04	2.481500e-05	3	true	GAMG	4.040900e-02	3.140020e-04	8	true
68            	smoothSolver	7.287330e-03	5.869750e-04	8	4.733380e-02	4.237640e-03	8	4.268360e-02	3.862700e-03	8	false	smoothSolver	7.599840e-03	3.687370e-04	4	true	smoothSolver	3.001450e-04	2.389470e-05	3	true	GAMG	3.934440e-02	2.952940e-04	8	true
69            	smoothSolver	7.074850e-03	5.791180e-04	8	4.668510e-02	4.205240e-03	8	4.102820e-02	3.748470e-03	8	false	smoothSolver	7.394010e-03	3.611000e-04	4	true	smoothSolver	2.875820e-04	2.299010e-05	3	true	GAMG	3.837560e-02	3.808980e-04	7	true
70            	smoothSolver	6.903020e-03	5.716390e-04	8	4.607880e-02	4.153690e-03	8	3.957470e-02	3.659140e-03	8	false	smoothSolver	7.204370e-03	3.537740e-04	4	true	smoothSolver	2.756090e-04	2.214350e-05	3	true	GAMG	3.743660e-02	3.704800e-04	7	true
71            	smoothSolver	6.760780e-03	5.643580e-04	8	4.546860e-02	4.084020e-03	8	3.823640e-02	3.589220e-03	8	false	smoothSolver	7.030460e-03	3.471000e-04	4	true	smoothSolver	2.640400e-04	2.137040e-05	3	true	GAMG	3.660920e-02	3.626240e-04	7	true
72            	smoothSolver	6.642240e-03	5.579840e-04	8	4.475600e-02	3.997800e-03	8	3.696530e-02	3.530210e-03	8	false	smoothSolver	6.867840e-03	3.408450e-04	4	true	smoothSolver	2.530080e-04	2.064850e-05	3	true	GAMG	3.561600e-02	2.626080e-04	8	true
73            	smoothSolver	6.545610e-03	5.530420e-04	8	4.402840e-02	3.906390e-03	8	3.570720e-02	3.470660e-03	8	false	smoothSolver	6.713580e-03	3.349100e-04	4	true	smoothSolver	2.427570e-04	1.998400e-05	3	true	GAMG	3.462950e-02	2.569910e-04	8	true
74            	smoothSolver	6.462480e-03	5.499670e-04	8	4.344270e-02	3.828420e-03	8	3.451200e-02	3.405330e-03	8	false	smoothSolver	6.565370e-03	3.293060e-04	4	true	smoothSolver	2.332830e-04	1.934340e-05	3	true	GAMG	3.354070e-02	2.541930e-04	8	true
75            	smoothSolver	6.389010e-03	5.484210e-04	8	4.287510e-02	3.765230e-03	8	3.336650e-02	3.332590e-03	8	false	smoothSolver	6.424790e-03	3.240480e-04	4	true	smoothSolver	2.247530e-04	1.875690e-05	3	true	GAMG	3.260520e-02	2.521300e-04	8	true
76            	smoothSolver	6.320550e-03	5.473570e-04	8	4.222560e-02	3.711490e-03	8	3.234910e-02	2.520990e-03	9	false	smoothSolver	6.293890e-03	3.190600e-04	4	true	smoothSolver	2.174760e-04	1.823830e-05	3	true	GAMG	3.179660e-02	2.507430e-04	8	true
77            	smoothSolver	6.264170e-03	5.470380e-04	8	4.156530e-02	3.673550e-03	8	3.127610e-02	2.428510e-03	9	false	smoothSolver	6.173780e-03	3.145360e-04	4	true	smoothSolver	2.110600e-04	1.777860e-05	3	true	GAMG	3.109970e-02	2.526640e-04	8	true
78            	smoothSolver	6.201310e-03	5.457330e-04	8	4.074190e-02	3.627700e-03	8	3.041880e-02	3.036910e-03	8	false	smoothSolver	6.060770e-03	3.103560e-04	4	true	smoothSolver	2.052730e-04	1.735880e-05	3	true	GAMG	3.033020e-02	2.565700e-04	8	true
79            	smoothSolver	6.127800e-03	5.437030e-04	8	3.975800e-02	3.555780e-03	8	2.992280e-02	2.973940e-03	8	false	smoothSolver	5.953010e-03	3.065310e-04	4	true	smoothSolver	1.998500e-04	1.696410e-05	3	true	GAMG	2.954720e-02	2.589120e-04	8	true
80            	smoothSolver	6.059460e-03	5.417690e-04	8	3.882060e-02	3.473360e-03	8	2.952460e-02	2.911280e-03	8	false	smoothSolver	5.850660e-03	3.028680e-04	4	true	smoothSolver	1.947690e-04	1.659580e-05	3	true	GAMG	2.870650e-02	2.602140e-04	8	true
81            	smoothSolver	5.998990e-03	5.401200e-04	8	3.798160e-02	3.390640e-03	8	2.927630e-02	2.860780e-03	8	false	smoothSolver	5.756540e-03	2.993720e-04	4	true	smoothSolver	1.900630e-04	1.623380e-05	3	true	GAMG	2.791190e-02	2.600060e-04	8	true
82            	smoothSolver	5.949070e-03	5.382090e-04	8	3.716480e-02	3.305960e-03	8	2.920250e-02	2.828140e-03	8	false	smoothSolver	5.670890e-03	2.962930e-04	4	true	smoothSolver	1.855530e-04	1.587610e-05	3	true	GAMG	2.721230e-02	2.592260e-04	8	true
83            	smoothSolver	5.908130e-03	5.352550e-04	8	3.626600e-02	3.212320e-03	8	2.921030e-02	2.810590e-03	8	false	smoothSolver	5.595590e-03	2.935070e-04	4	true	smoothSolver	1.812030e-04	1.549610e-05	3	true	GAMG	2.665720e-02	2.569200e-04	8	true
84            	smoothSolver	5.872150e-03	5.313060e-04	8	3.526100e-02	3.107930e-03	8	2.921380e-02	2.787860e-03	8	false	smoothSolver	5.526240e-03	2.907960e-04	4	true	smoothSolver	1.768670e-04	1.510170e-05	3	true	GAMG	2.618860e-02	2.527280e-04	8	true
85            	smoothSolver	5.835440e-03	5.264610e-04	8	3.422630e-02	2.993420e-03	8	2.913180e-02	2.748080e-03	8	false	smoothSolver	5.459930e-03	2.881090e-04	4	true	smoothSolver	1.726290e-04	1.469510e-05	3	true	GAMG	2.576390e-02	2.457570e-04	8	true
86            	smoothSolver	5.804310e-03	5.196040e-04	8	3.321140e-02	2.869990e-03	8	2.898800e-02	2.690520e-03	8	false	smoothSolver	5.393600e-03	2.852830e-04	4	true	smoothSolver	1.683490e-04	1.427380e-05	3	true	GAMG	2.529390e-02	2.401030e-04	8	true
87            	smoothSolver	5.772160e-03	5.095000e-04	8	3.229450e-02	2.747700e-03	8	2.879860e-02	2.621380e-03	8	false	smoothSolver	5.324390e-03	2.821130e-04	4	true	smoothSolver	1.640250e-04	1.385640e-05	3	true	GAMG	2.484230e-02	2.351090e-04	8	true
88            	smoothSolver	5.742560e-03	4.958250e-04	8	3.145590e-02	2.624410e-03	8	2.855950e-02	2.543030e-03	8	false	smoothSolver	5.255260e-03	2.786280e-04	4	true	smoothSolver	1.598800e-04	1.345240e-05	3	true	GAMG	2.439350e-02	2.305060e-04	8	true
89            	smoothSolver	5.714430e-03	4.798250e-04	8	3.067260e-02	2.507050e-03	8	2.827990e-02	2.459050e-03	8	false	smoothSolver	5.190510e-03	2.748180e-04	4	true	smoothSolver	1.560080e-04	1.306560e-05	3	true	GAMG	2.401570e-02	2.269370e-04	8	true
90            	smoothSolver	5.687290e-03	4.619660e-04	8	2.994130e-02	2.398850e-03	8	2.791690e-02	2.372390e-03	8	false	smoothSolver	5.131500e-03	2.706860e-04	4	true	smoothSolver	1.524450e-04	1.269460e-05	3	true	GAMG	2.366080e-02	2.251670e-04	8	true
91            	smoothSolver	5.653630e-03	4.434640e-04	8	2.919610e-02	2.300260e-03	8	2.743630e-02	2.288570e-03	8	false	smoothSolver	5.075180e-03	2.664470e-04	4	true	smoothSolver	1.488230e-04	1.232540e-05	3	true	GAMG	2.315120e-02	2.241460e-04	8	true
92            	smoothSolver	5.605570e-03	4.261680e-04	8	2.843850e-02	2.208690e-03	8	2.680110e-02	2.203460e-03	8	false	smoothSolver	5.019940e-03	2.622500e-04	4	true	smoothSolver	1.450370e-04	1.194960e-05	3	true	GAMG	2.253680e-02	1.735200e-04	9	true
93            	smoothSolver	5.543070e-03	5.461300e-04	7	2.761130e-02	2.121490e-03	8	2.603790e-02	2.118540e-03	8	false	smoothSolver	4.962280e-03	2.581290e-04	4	true	smoothSolver	1.406740e-04	1.155800e-05	3	true	GAMG	2.168860e-02	1.753210e-04	9	true
94            	smoothSolver	5.476910e-03	5.319660e-04	7	2.658060e-02	2.023210e-03	8	2.508580e-02	2.018680e-03	8	false	smoothSolver	4.903580e-03	2.542100e-04	4	true	smoothSolver	1.362720e-04	1.118520e-05	3	true	GAMG	2.067470e-02	1.795830e-04	9	true
95            	smoothSolver	5.401450e-03	5.193360e-04	7	2.559390e-02	1.932780e-03	8	2.421600e-02	1.935100e-03	8	false	smoothSolver	4.846700e-03	2.504860e-04	4	true	smoothSolver	1.320000e-04	1.083640e-05	3	true	GAMG	1.957690e-02	1.802630e-04	9	true
96            	smoothSolver	5.311950e-03	5.055610e-04	7	2.468850e-02	2.455590e-03	7	2.342470e-02	1.866640e-03	8	false	smoothSolver	4.788820e-03	2.466810e-04	4	true	smoothSolver	1.278080e-04	1.049460e-05	3	true	GAMG	1.848740e-02	1.765040e-04	9	true
97            	smoothSolver	5.206220e-03	4.893610e-04	7	2.400920e-02	2.358260e-03	7	2.263580e-02	1.801600e-03	8	false	smoothSolver	4.727830e-03	2.426780e-04	4	true	smoothSolver	1.236910e-04	1.016000e-05	3	true	GAMG	1.752430e-02	1.720900e-04	9	true
98            	smoothSolver	5.078950e-03	4.716050e-04	7	2.329000e-02	2.245330e-03	7	2.191480e-02	1.741410e-03	8	false	smoothSolver	4.662060e-03	2.386710e-04	4	true	smoothSolver	1.196340e-04	9.841950e-06	3	true	GAMG	1.665600e-02	1.347870e-04	10	true
99            	smoothSolver	4.940680e-03	4.538610e-04	7	2.255550e-02	2.127830e-03	7	2.124770e-02	1.681160e-03	8	false	smoothSolver	4.594030e-03	2.346960e-04	4	true	smoothSolver	1.154210e-04	9.524180e-06	3	true	GAMG	1.589240e-02	1.585970e-04	9	true
100           	smoothSolver	4.789520e-03	4.374040e-04	7	2.174890e-02	2.018840e-03	7	2.058460e-02	1.620630e-03	8	false	smoothSolver	4.524940e-03	2.307020e-04	4	true	smoothSolver	1.112020e-04	9.214330e-06	3	true	GAMG	1.518520e-02	1.419190e-04	9	true
101           	smoothSolver	4.636250e-03	4.219260e-04	7	2.085420e-02	1.924270e-03	7	1.990380e-02	1.563420e-03	8	false	smoothSolver	4.454230e-03	2.266830e-04	4	true	smoothSolver	1.071510e-04	8.929670e-06	3	true	GAMG	1.449450e-02	1.239170e-04	9	true
102           	smoothSolver	4.486600e-03	4.059170e-04	7	1.989330e-02	1.840980e-03	7	1.926730e-02	1.513950e-03	8	false	smoothSolver	4.384020e-03	2.226850e-04	4	true	smoothSolver	1.034230e-04	8.674520e-06	3	true	GAMG	1.379770e-02	1.373800e-04	8	true
103           	smoothSolver	4.341960e-03	3.889520e-04	7	1.891730e-02	1.758620e-03	7	1.864860e-02	1.465640e-03	8	false	smoothSolver	4.314270e-03	2.186790e-04	4	true	smoothSolver	1.000940e-04	8.439090e-06	3	true	GAMG	1.304430e-02	1.168750e-04	8	true
104           	smoothSolver	4.206540e-03	3.705240e-04	7	1.799900e-02	1.678290e-03	7	1.797610e-02	1.417540e-03	8	false	smoothSolver	4.247870e-03	2.147270e-04	4	true	smoothSolver	9.711070e-05	8.224140e-06	3	true	GAMG	1.235690e-02	9.924580e-05	8	true
105           	smoothSolver	4.084890e-03	3.517840e-04	7	1.717660e-02	1.599630e-03	7	1.723900e-02	1.364690e-03	8	false	smoothSolver	4.184450e-03	2.108790e-04	4	true	smoothSolver	9.422110e-05	8.021630e-06	3	true	GAMG	1.176780e-02	8.652980e-05	8	true
106           	smoothSolver	3.980550e-03	3.343310e-04	7	1.645080e-02	1.522930e-03	7	1.644430e-02	1.303920e-03	8	false	smoothSolver	4.119620e-03	2.071600e-04	4	true	smoothSolver	9.139770e-05	7.826230e-06	3	true	GAMG	1.124130e-02	8.198470e-05	8	true
107           	smoothSolver	3.898930e-03	3.171600e-04	7	1.581780e-02	1.452920e-03	7	1.562830e-02	1.234050e-03	8	false	smoothSolver	4.056590e-03	2.036080e-04	4	true	smoothSolver	8.877500e-05	7.634460e-06	3	true	GAMG	1.075140e-02	8.293120e-05	8	true
108           	smoothSolver	3.831170e-03	2.990450e-04	7	1.523870e-02	1.387260e-03	7	1.486850e-02	1.167440e-03	8	false	smoothSolver	4.001560e-03	2.003360e-04	4	true	smoothSolver	8.641520e-05	7.459630e-06	3	true	GAMG	1.030390e-02	8.570500e-05	8	true
109           	smoothSolver	3.756620e-03	2.800990e-04	7	1.461840e-02	1.320550e-03	7	1.418160e-02	1.110480e-03	8	false	smoothSolver	3.954150e-03	1.973490e-04	4	true	smoothSolver	8.425290e-05	7.287790e-06	3	true	GAMG	9.916060e-03	8.921070e-05	8	true
110           	smoothSolver	3.658400e-03	3.594560e-04	6	1.392980e-02	1.255670e-03	7	1.348280e-02	1.063550e-03	8	false	smoothSolver	3.910570e-03	1.944960e-04	4	true	smoothSolver	8.220630e-05	7.096510e-06	3	true	GAMG	9.600760e-03	8.771210e-05	8	true
111           	smoothSolver	3.526250e-03	3.379130e-04	6	1.314350e-02	1.184150e-03	7	1.269860e-02	1.012550e-03	8	false	smoothSolver	3.867840e-03	1.917670e-04	4	true	smoothSolver	8.014610e-05	6.909150e-06	3	true	GAMG	9.269190e-03	8.800410e-05	8	true
112           	smoothSolver	3.361460e-03	3.200100e-04	6	1.245300e-02	1.130800e-03	7	1.192950e-02	9.620600e-04	8	false	smoothSolver	3.824280e-03	1.890750e-04	4	true	smoothSolver	7.795740e-05	6.718320e-06	3	true	GAMG	8.833390e-03	8.702290e-05	8	true
113           	smoothSolver	3.172580e-03	3.050340e-04	6	1.176850e-02	1.086360e-03	7	1.114950e-02	9.079290e-04	8	false	smoothSolver	3.778350e-03	1.863640e-04	4	true	smoothSolver	7.563730e-05	6.518090e-06	3	true	GAMG	8.313900e-03	6.412070e-05	9	true
114           	smoothSolver	2.975620e-03	2.930770e-04	6	1.110590e-02	1.044910e-03	7	1.041630e-02	8.557110e-04	8	false	smoothSolver	3.730480e-03	1.836870e-04	4	true	smoothSolver	7.325340e-05	6.321490e-06	3	true	GAMG	7.766930e-03	6.147790e-05	9	true
115           	smoothSolver	2.777630e-03	2.094460e-04	7	1.046580e-02	1.003340e-03	7	9.824010e-03	8.114100e-04	8	false	smoothSolver	3.684210e-03	1.811960e-04	4	true	smoothSolver	7.112800e-05	6.145120e-06	3	true	GAMG	7.308580e-03	5.783910e-05	9	true
116           	smoothSolver	2.572960e-03	1.998550e-04	7	9.899630e-03	9.660980e-04	7	9.417260e-03	7.820690e-04	8	false	smoothSolver	3.639130e-03	1.787960e-04	4	true	smoothSolver	6.914140e-05	5.979570e-06	3	true	GAMG	6.937390e-03	6.854830e-05	8	true
117           	smoothSolver	2.374330e-03	1.907150e-04	7	9.347060e-03	9.267190e-04	7	9.013510e-03	7.525450e-04	8	false	smoothSolver	3.595200e-03	1.764380e-04	4	true	smoothSolver	6.719930e-05	5.821820e-06	3	true	GAMG	6.646970e-03	6.045750e-05	8	true
118           	smoothSolver	2.189300e-03	1.826490e-04	7	8.857300e-03	6.747490e-04	8	8.599350e-03	7.215830e-04	8	false	smoothSolver	3.548510e-03	1.741870e-04	4	true	smoothSolver	6.521670e-05	5.674610e-06	3	true	GAMG	6.365210e-03	5.183130e-05	8	true
119           	smoothSolver	2.029830e-03	1.761660e-04	7	8.349990e-03	6.481790e-04	8	8.164710e-03	6.870570e-04	8	false	smoothSolver	3.496770e-03	1.720360e-04	4	true	smoothSolver	6.320580e-05	5.536460e-06	3	true	GAMG	6.031450e-03	4.420920e-05	8	true