# Moment      
# CofR        : (-1.000000e+01 0.000000e+00 0.000000e+00)
#
# Time        	total_x total_y total_z	pressure_x pressure_y pressure_z	viscous_x viscous_y viscous_z
1              -5.410752e-06 -1.805802e+02 4.811245e-02 -4.974058e-06 -1.806047e+02 4.806794e-02 -4.366942e-07 2.453816e-02 4.451349e-05
2              -1.758027e-03 -4.931606e+01 3.346575e-01 -1.706728e-03 -5.031309e+01 3.300763e-01 -5.129989e-05 9.970371e-01 4.581123e-03
3              -1.784925e-02 5.169514e+01 4.800040e+00 -1.785469e-02 5.082604e+01 4.788581e+00 5.444078e-06 8.691003e-01 1.145991e-02
4              2.079745e-03 1.671473e+02 2.650166e+00 2.053579e-03 1.669291e+02 2.653581e+00 2.616579e-05 2.181518e-01 -3.414952e-03
5              8.184309e-03 4.089072e+01 1.136485e+00 8.176483e-03 4.098374e+01 1.134653e+00 7.825427e-06 -9.302500e-02 1.831811e-03
6              -2.482061e-03 -6.624542e+01 2.353708e+00 -2.450396e-03 -6.602669e+01 2.339310e+00 -3.166474e-05 -2.187274e-01 1.439845e-02
7              -7.172454e-03 -1.055019e+02 1.981559e+00 -7.156695e-03 -1.050660e+02 1.972215e+00 -1.575820e-05 -4.358832e-01 9.343964e-03
8              -6.213356e-03 -7.807671e+01 1.411649e+00 -6.175021e-03 -7.752613e+01 1.400268e+00 -3.833465e-05 -5.505814e-01 1.138076e-02
9              -4.862602e-03 -3.991194e+01 1.002472e+00 -4.738222e-03 -3.948607e+01 9.987752e-01 -1.243800e-04 -4.258674e-01 3.696900e-03
10             -4.008599e-03 4.025391e+00 1.642888e-01 -3.938948e-03 4.162341e+00 1.750001e-01 -6.965111e-05 -1.369502e-01 -1.071128e-02
11             -2.954514e-03 3.429105e+01 -7.386210e-01 -2.899840e-03 3.433085e+01 -7.170684e-01 -5.467435e-05 -3.980049e-02 -2.155263e-02
12             -2.361388e-03 5.686673e+01 -1.463517e+00 -2.363954e-03 5.679660e+01 -1.448196e+00 2.565434e-06 7.012470e-02 -1.532132e-02
13             2.777183e-03 6.551298e+01 -2.535049e+00 2.773495e-03 6.541476e+01 -2.534010e+00 3.687660e-06 9.822268e-02 -1.038685e-03
14             7.414008e-03 6.360219e+01 -3.407308e+00 7.360061e-03 6.348243e+01 -3.418486e+00 5.394646e-05 1.197579e-01 1.117799e-02
15             1.098269e-02 5.671630e+01 -3.880347e+00 1.093372e-02 5.654553e+01 -3.888496e+00 4.896222e-05 1.707721e-01 8.149761e-03
16             1.517726e-02 4.875244e+01 -4.306902e+00 1.510426e-02 4.855892e+01 -4.329431e+00 7.299946e-05 1.935229e-01 2.252916e-02
17             1.754531e-02 4.158776e+01 -4.267480e+00 1.751894e-02 4.139426e+01 -4.296064e+00 2.636641e-05 1.934999e-01 2.858346e-02
18             1.916944e-02 3.668143e+01 -4.173144e+00 1.912132e-02 3.651664e+01 -4.197272e+00 4.812191e-05 1.647842e-01 2.412753e-02
19             2.035038e-02 3.291047e+01 -4.273118e+00 2.032403e-02 3.276569e+01 -4.293371e+00 2.635401e-05 1.447767e-01 2.025326e-02
20             1.949694e-02 2.854491e+01 -4.084926e+00 1.948632e-02 2.841839e+01 -4.101418e+00 1.062791e-05 1.265196e-01 1.649204e-02
21             1.692313e-02 2.199632e+01 -3.639806e+00 1.692634e-02 2.189209e+01 -3.651217e+00 -3.209447e-06 1.042372e-01 1.141183e-02
22             1.214871e-02 1.366922e+01 -2.738151e+00 1.217668e-02 1.358797e+01 -2.748102e+00 -2.796578e-05 8.124954e-02 9.951455e-03
23             5.951290e-03 5.640531e+00 -1.538794e+00 6.001867e-03 5.597601e+00 -1.550504e+00 -5.057757e-05 4.293025e-02 1.171040e-02
24             4.012987e-04 5.420689e-01 -3.914661e-01 4.831450e-04 5.199465e-01 -4.119252e-01 -8.184631e-05 2.212242e-02 2.045906e-02
25             -3.651739e-03 -2.146309e+00 4.683130e-01 -3.574478e-03 -2.145980e+00 4.493831e-01 -7.726170e-05 -3.281740e-04 1.892986e-02
26             -6.007755e-03 -3.083127e+00 9.860901e-01 -5.927093e-03 -3.072810e+00 9.621968e-01 -8.066215e-05 -1.031778e-02 2.389334e-02
27             -6.944851e-03 -3.193222e+00 1.158657e+00 -6.873712e-03 -3.173734e+00 1.138329e+00 -7.113902e-05 -1.948808e-02 2.032819e-02
28             -6.801956e-03 -3.190725e+00 1.097710e+00 -6.717039e-03 -3.169412e+00 1.076054e+00 -8.491723e-05 -2.131284e-02 2.165567e-02
29             -5.620896e-03 -3.142226e+00 8.341629e-01 -5.534463e-03 -3.117654e+00 8.149066e-01 -8.643355e-05 -2.457286e-02 1.925634e-02
30             -4.326225e-03 -2.774640e+00 6.124763e-01 -4.232398e-03 -2.754239e+00 5.901122e-01 -9.382691e-05 -2.040109e-02 2.236405e-02
31             -3.874205e-03 -2.216841e+00 5.956282e-01 -3.771559e-03 -2.198008e+00 5.743831e-01 -1.026461e-04 -1.883309e-02 2.124512e-02
32             -4.394412e-03 -1.466007e+00 8.246829e-01 -4.271809e-03 -1.453624e+00 8.006954e-01 -1.226027e-04 -1.238285e-02 2.398756e-02
33             -5.459394e-03 -7.517313e-01 1.217108e+00 -5.313506e-03 -7.439743e-01 1.190732e+00 -1.458879e-04 -7.756993e-03 2.637535e-02
34             -6.644886e-03 -2.367634e-01 1.665373e+00 -6.462536e-03 -2.324292e-01 1.631471e+00 -1.823499e-04 -4.334293e-03 3.390182e-02
35             -7.668669e-03 -6.891696e-02 2.041745e+00 -7.457774e-03 -6.589550e-02 2.003328e+00 -2.108958e-04 -3.021462e-03 3.841728e-02
36             -8.356735e-03 -2.680670e-01 2.254732e+00 -8.118701e-03 -2.652078e-01 2.211620e+00 -2.380342e-04 -2.859197e-03 4.311121e-02
37             -8.633867e-03 -6.846876e-01 2.311165e+00 -8.376670e-03 -6.789686e-01 2.265413e+00 -2.571967e-04 -5.718944e-03 4.575193e-02
38             -8.476156e-03 -1.133953e+00 2.253498e+00 -8.206980e-03 -1.127781e+00 2.204667e+00 -2.691756e-04 -6.171797e-03 4.883044e-02
39             -8.113752e-03 -1.518576e+00 2.162176e+00 -7.841592e-03 -1.509862e+00 2.111545e+00 -2.721602e-04 -8.713975e-03 5.063074e-02
40             -7.701834e-03 -1.774932e+00 2.078809e+00 -7.437607e-03 -1.765027e+00 2.027225e+00 -2.642268e-04 -9.905381e-03 5.158416e-02
41             -7.271469e-03 -1.876394e+00 1.982518e+00 -7.020631e-03 -1.865791e+00 1.931830e+00 -2.508372e-04 -1.060379e-02 5.068868e-02
42             -6.921330e-03 -1.878739e+00 1.871630e+00 -6.691853e-03 -1.867953e+00 1.823600e+00 -2.294771e-04 -1.078585e-02 4.803039e-02
43             -6.599133e-03 -1.838860e+00 1.735547e+00 -6.395315e-03 -1.828895e+00 1.691632e+00 -2.038175e-04 -9.965134e-03 4.391416e-02
44             -6.167662e-03 -1.822317e+00 1.560408e+00 -5.994087e-03 -1.814658e+00 1.522529e+00 -1.735744e-04 -7.659402e-03 3.787915e-02
45             -5.487292e-03 -1.842215e+00 1.351912e+00 -5.341938e-03 -1.836672e+00 1.320262e+00 -1.453536e-04 -5.543520e-03 3.165003e-02
46             -4.467388e-03 -1.885124e+00 1.110890e+00 -4.352666e-03 -1.882074e+00 1.086370e+00 -1.147224e-04 -3.049388e-03 2.451946e-02
47             -3.106238e-03 -1.913583e+00 8.395404e-01 -3.018661e-03 -1.912069e+00 8.219107e-01 -8.757686e-05 -1.513893e-03 1.762966e-02
48             -1.585905e-03 -1.922562e+00 5.582754e-01 -1.525113e-03 -1.922084e+00 5.477723e-01 -6.079201e-05 -4.781759e-04 1.050308e-02
49             -9.237722e-05 -1.942747e+00 2.954216e-01 -5.463280e-05 -1.942343e+00 2.912769e-01 -3.774441e-05 -4.038718e-04 4.144684e-03
50             1.232539e-03 -1.924822e+00 6.704775e-02 1.249144e-03 -1.923742e+00 6.817390e-02 -1.660493e-05 -1.080059e-03 -1.126145e-03
51             2.328621e-03 -1.883198e+00 -1.213532e-01 2.328817e-03 -1.880976e+00 -1.163137e-01 -1.959860e-07 -2.222030e-03 -5.039490e-03
52             3.154307e-03 -1.846789e+00 -2.677707e-01 3.139660e-03 -1.843416e+00 -2.597514e-01 1.464693e-05 -3.372179e-03 -8.019267e-03
53             3.661337e-03 -1.838680e+00 -3.701885e-01 3.635991e-03 -1.834263e+00 -3.602014e-01 2.534556e-05 -4.417061e-03 -9.987086e-03
54             3.821016e-03 -1.904026e+00 -4.229313e-01 3.787278e-03 -1.898075e+00 -4.112503e-01 3.373768e-05 -5.950764e-03 -1.168098e-02
55             3.598956e-03 -2.014280e+00 -4.165796e-01 3.561876e-03 -2.006686e+00 -4.041746e-01 3.707972e-05 -7.593864e-03 -1.240497e-02
56             3.023341e-03 -2.180609e+00 -3.449135e-01 2.985645e-03 -2.170289e+00 -3.319320e-01 3.769596e-05 -1.031993e-02 -1.298151e-02
57             2.170933e-03 -2.380513e+00 -2.122824e-01 2.137974e-03 -2.366734e+00 -1.998288e-01 3.295900e-05 -1.377967e-02 -1.245356e-02
58             1.163731e-03 -2.611315e+00 -3.532504e-02 1.138051e-03 -2.593247e+00 -2.401780e-02 2.568009e-05 -1.806844e-02 -1.130724e-02
59             1.248160e-04 -2.802189e+00 1.577369e-01 1.105707e-04 -2.779361e+00 1.670439e-01 1.424531e-05 -2.282823e-02 -9.307065e-03
60             -8.292227e-04 -2.935244e+00 3.387816e-01 -8.319162e-04 -2.907400e+00 3.458664e-01 2.693498e-06 -2.784452e-02 -7.084826e-03
61             -1.628415e-03 -2.986231e+00 4.875449e-01 -1.618639e-03 -2.953511e+00 4.921527e-01 -9.775976e-06 -3.271986e-02 -4.607741e-03
62             -2.260489e-03 -2.940804e+00 5.964426e-01 -2.240154e-03 -2.903583e+00 5.987875e-01 -2.033479e-05 -3.722127e-02 -2.344864e-03
63             -2.723074e-03 -2.807649e+00 6.658719e-01 -2.692394e-03 -2.766596e+00 6.660186e-01 -3.067998e-05 -4.105253e-02 -1.467367e-04
64             -3.010346e-03 -2.611498e+00 7.003043e-01 -2.971427e-03 -2.567422e+00 6.986496e-01 -3.891906e-05 -4.407574e-02 1.654676e-03
65             -3.143196e-03 -2.375524e+00 7.081904e-01 -3.097589e-03 -2.329399e+00 7.049015e-01 -4.560709e-05 -4.612534e-02 3.288887e-03
66             -3.175367e-03 -2.098688e+00 7.034661e-01 -3.125443e-03 -2.051324e+00 6.988688e-01 -4.992430e-05 -4.736399e-02 4.597230e-03
67             -3.097457e-03 -1.867529e+00 6.791018e-01 -3.045441e-03 -1.819668e+00 6.734210e-01 -5.201592e-05 -4.786021e-02 5.680825e-03
68             -2.933688e-03 -1.692919e+00 6.375209e-01 -2.882190e-03 -1.644896e+00 6.311668e-01 -5.149850e-05 -4.802390e-02 6.354045e-03
69             -2.700496e-03 -1.588875e+00 5.787925e-01 -2.651429e-03 -1.540987e+00 5.720902e-01 -4.906690e-05 -4.788840e-02 6.702358e-03
70             -2.415019e-03 -1.566324e+00 5.050630e-01 -2.370447e-03 -1.518429e+00 4.984928e-01 -4.457194e-05 -4.789437e-02 6.570136e-03
71             -2.093625e-03 -1.622923e+00 4.212284e-01 -2.054634e-03 -1.574888e+00 4.150646e-01 -3.899070e-05 -4.803508e-02 6.163797e-03
72             -1.753160e-03 -1.745916e+00 3.340892e-01 -1.721024e-03 -1.697323e+00 3.286856e-01 -3.213663e-05 -4.859262e-02 5.403525e-03
73             -1.411267e-03 -1.912740e+00 2.501997e-01 -1.385913e-03 -1.863412e+00 2.455847e-01 -2.535396e-05 -4.932779e-02 4.614992e-03
74             -1.082692e-03 -2.099305e+00 1.740267e-01 -1.064478e-03 -2.049009e+00 1.703427e-01 -1.821401e-05 -5.029620e-02 3.684065e-03
75             -7.820144e-04 -2.280301e+00 1.084337e-01 -7.699040e-04 -2.229026e+00 1.055390e-01 -1.211032e-05 -5.127418e-02 2.894693e-03
76             -5.215533e-04 -2.430862e+00 5.465780e-02 -5.150091e-04 -2.378691e+00 5.254719e-02 -6.544173e-06 -5.217083e-02 2.110615e-03
77             -3.074522e-04 -2.540998e+00 1.320959e-02 -3.049744e-04 -2.488196e+00 1.167176e-02 -2.477863e-06 -5.280279e-02 1.537828e-03
78             -1.409488e-04 -2.599542e+00 -1.693118e-02 -1.415759e-04 -2.546475e+00 -1.797758e-02 6.270796e-07 -5.306679e-02 1.046395e-03
79             -2.361590e-05 -2.597960e+00 -3.672243e-02 -2.583858e-05 -2.545058e+00 -3.748348e-02 2.222683e-06 -5.290258e-02 7.610483e-04
80             5.121350e-05 -2.548591e+00 -4.835249e-02 4.822592e-05 -2.496249e+00 -4.890251e-02 2.987578e-06 -5.234213e-02 5.500290e-04
81             9.128554e-05 -2.469381e+00 -5.365076e-02 8.848686e-05 -2.417904e+00 -5.412477e-02 2.798675e-06 -5.147663e-02 4.740093e-04
82             1.069841e-04 -2.383774e+00 -5.472872e-02 1.046922e-04 -2.333317e+00 -5.515412e-02 2.291965e-06 -5.045717e-02 4.254019e-04
83             1.100249e-04 -2.314462e+00 -5.357345e-02 1.085610e-04 -2.265004e+00 -5.401474e-02 1.463904e-06 -4.945772e-02 4.412956e-04
84             1.103112e-04 -2.278332e+00 -5.181936e-02 1.094954e-04 -2.229735e+00 -5.225729e-02 8.157761e-07 -4.859792e-02 4.379281e-04
85             1.137372e-04 -2.282716e+00 -5.041162e-02 1.136648e-04 -2.234758e+00 -5.087410e-02 7.242074e-08 -4.795809e-02 4.624803e-04
86             1.229633e-04 -2.325985e+00 -4.972001e-02 1.235777e-04 -2.278419e+00 -5.019823e-02 -6.144662e-07 -4.756687e-02 4.782211e-04
87             1.363650e-04 -2.399976e+00 -4.964322e-02 1.377805e-04 -2.352547e+00 -5.016078e-02 -1.415557e-06 -4.742926e-02 5.175610e-04
88             1.507887e-04 -2.492214e+00 -4.992176e-02 1.530490e-04 -2.444722e+00 -5.048098e-02 -2.260317e-06 -4.749221e-02 5.592224e-04
89             1.628234e-04 -2.587281e+00 -5.014691e-02 1.659083e-04 -2.539610e+00 -5.074765e-02 -3.084933e-06 -4.767109e-02 6.007403e-04
90             1.688161e-04 -2.669090e+00 -4.985534e-02 1.726153e-04 -2.621247e+00 -5.048051e-02 -3.799196e-06 -4.784308e-02 6.251798e-04
91             1.665946e-04 -2.723465e+00 -4.871915e-02 1.710098e-04 -2.675583e+00 -4.935707e-02 -4.415121e-06 -4.788122e-02 6.379173e-04
92             1.558103e-04 -2.742070e+00 -4.666756e-02 1.607241e-04 -2.694401e+00 -4.730380e-02 -4.913820e-06 -4.766889e-02 6.362366e-04
93             1.354321e-04 -2.725416e+00 -4.331477e-02 1.407080e-04 -2.678266e+00 -4.393677e-02 -5.275930e-06 -4.714981e-02 6.219961e-04
94             1.103355e-04 -2.684028e+00 -3.962627e-02 1.159288e-04 -2.637674e+00 -4.023223e-02 -5.593250e-06 -4.635424e-02 6.059606e-04
95             8.288855e-05 -2.635436e+00 -3.578598e-02 8.875486e-05 -2.590060e+00 -3.637720e-02 -5.866310e-06 -4.537655e-02 5.912152e-04
96             5.741132e-05 -2.596566e+00 -3.246315e-02 6.348428e-05 -2.552210e+00 -3.303946e-02 -6.072963e-06 -4.435603e-02 5.763055e-04
97             3.286241e-05 -2.585928e+00 -2.920230e-02 3.907635e-05 -2.542485e+00 -2.976491e-02 -6.213947e-06 -4.344346e-02 5.626098e-04
98             1.343800e-05 -2.608493e+00 -2.659476e-02 1.973030e-05 -2.565752e+00 -2.714563e-02 -6.292306e-06 -4.274176e-02 5.508722e-04
99             2.121906e-06 -2.661152e+00 -2.509681e-02 8.428200e-06 -2.618869e+00 -2.563776e-02 -6.306294e-06 -4.228317e-02 5.409520e-04
100            3.296214e-07 -2.735218e+00 -2.491676e-02 6.573473e-06 -2.693168e+00 -2.544512e-02 -6.243852e-06 -4.205094e-02 5.283636e-04
101            7.751251e-06 -2.819101e+00 -2.602176e-02 1.387781e-05 -2.777105e+00 -2.653474e-02 -6.126555e-06 -4.199563e-02 5.129848e-04
102            2.279502e-05 -2.900032e+00 -2.816074e-02 2.876775e-05 -2.857990e+00 -2.865570e-02 -5.972732e-06 -4.204227e-02 4.949588e-04
103            4.299810e-05 -2.965900e+00 -3.088851e-02 4.878539e-05 -2.923802e+00 -3.136306e-02 -5.787295e-06 -4.209824e-02 4.745530e-04
104            6.561931e-05 -3.007231e+00 -3.370708e-02 7.123154e-05 -2.965168e+00 -3.416399e-02 -5.612223e-06 -4.206323e-02 4.569155e-04
105            8.793567e-05 -3.019987e+00 -3.614848e-02 9.342365e-05 -2.978126e+00 -3.659529e-02 -5.487979e-06 -4.186048e-02 4.468117e-04
106            1.070147e-04 -3.006462e+00 -3.778531e-02 1.124657e-04 -2.965006e+00 -3.823514e-02 -5.450936e-06 -4.145677e-02 4.498320e-04
107            1.207990e-04 -2.976018e+00 -3.835772e-02 1.262997e-04 -2.935131e+00 -3.882385e-02 -5.500739e-06 -4.088637e-02 4.661336e-04
108            1.282705e-04 -2.942380e+00 -3.780539e-02 1.339049e-04 -2.902145e+00 -3.830138e-02 -5.634424e-06 -4.023420e-02 4.959916e-04
109            1.290162e-04 -2.919532e+00 -3.615363e-02 1.348750e-04 -2.879925e+00 -3.669408e-02 -5.858778e-06 -3.960745e-02 5.404562e-04
110            1.220173e-04 -2.917089e+00 -3.342989e-02 1.281445e-04 -2.877985e+00 -3.402422e-02 -6.127226e-06 -3.910380e-02 5.943272e-04
111            1.134673e-04 -2.937929e+00 -3.049923e-02 1.198678e-04 -2.899148e+00 -3.115009e-02 -6.400464e-06 -3.878148e-02 6.508565e-04
112            1.048527e-04 -2.978495e+00 -2.768444e-02 1.115291e-04 -2.939850e+00 -2.839333e-02 -6.676353e-06 -3.864528e-02 7.088863e-04
113            9.773420e-05 -3.031455e+00 -2.526170e-02 1.046652e-04 -2.992775e+00 -2.602430e-02 -6.931015e-06 -3.867986e-02 7.626061e-04
114            9.302744e-05 -3.087441e+00 -2.341235e-02 1.001531e-04 -3.048609e+00 -2.421941e-02 -7.125703e-06 -3.883202e-02 8.070623e-04
115            9.134096e-05 -3.139869e+00 -2.221849e-02 9.860380e-05 -3.100823e+00 -2.305984e-02 -7.262844e-06 -3.904619e-02 8.413534e-04
116            9.187231e-05 -3.175561e+00 -2.160317e-02 9.917529e-05 -3.136321e+00 -2.246352e-02 -7.302978e-06 -3.923950e-02 8.603541e-04
117            9.446476e-05 -3.189631e+00 -2.153194e-02 1.017177e-04 -3.150283e+00 -2.239604e-02 -7.252944e-06 -3.934831e-02 8.640969e-04
118            9.854287e-05 -3.180311e+00 -2.197451e-02 1.056983e-04 -3.140985e+00 -2.283297e-02 -7.155397e-06 -3.932590e-02 8.584566e-04
119            1.034319e-04 -3.152642e+00 -2.284260e-02 1.104527e-04 -3.113477e+00 -2.368572e-02 -7.020714e-06 -3.916536e-02 8.431195e-04
120            1.081318e-04 -3.114971e+00 -2.402165e-02 1.150247e-04 -3.076077e+00 -2.484625e-02 -6.892849e-06 -3.889349e-02 8.246000e-04
121            1.118360e-04 -3.078439e+00 -2.539130e-02 1.186201e-04 -3.039858e+00 -2.619508e-02 -6.784186e-06 -3.858109e-02 8.037794e-04
122            1.138177e-04 -3.053552e+00 -2.681440e-02 1.205156e-04 -3.015248e+00 -2.759556e-02 -6.697930e-06 -3.830399e-02 7.811653e-04
123            1.139276e-04 -3.047039e+00 -2.816254e-02 1.205780e-04 -3.008900e+00 -2.892115e-02 -6.650348e-06 -3.813924e-02 7.586042e-04
124            1.121905e-04 -3.060206e+00 -2.929352e-02 1.188238e-04 -3.022091e+00 -3.003156e-02 -6.633276e-06 -3.811579e-02 7.380371e-04
125            1.090555e-04 -3.089505e+00 -3.012831e-02 1.157133e-04 -3.051260e+00 -3.085039e-02 -6.657839e-06 -3.824494e-02 7.220839e-04
126            1.053383e-04 -3.127872e+00 -3.067943e-02 1.120372e-04 -3.089380e+00 -3.139027e-02 -6.698961e-06 -3.849155e-02 7.108432e-04
127            1.017797e-04 -3.166919e+00 -3.098737e-02 1.085376e-04 -3.128101e+00 -3.169182e-02 -6.757963e-06 -3.881835e-02 7.044443e-04
128            9.848437e-05 -3.199976e+00 -3.108059e-02 1.052886e-04 -3.160818e+00 -3.178103e-02 -6.804245e-06 -3.915812e-02 7.004445e-04
129            9.701128e-05 -3.217719e+00 -3.116059e-02 1.038531e-04 -3.178260e+00 -3.185924e-02 -6.841808e-06 -3.945848e-02 6.986517e-04
130            9.734345e-05 -3.216885e+00 -3.126333e-02 1.041801e-04 -3.177231e+00 -3.195900e-02 -6.836601e-06 -3.965401e-02 6.956694e-04
131            9.920718e-05 -3.197979e+00 -3.141410e-02 1.060121e-04 -3.158251e+00 -3.210514e-02 -6.804953e-06 -3.972725e-02 6.910382e-04
132            1.022639e-04 -3.165406e+00 -3.163379e-02 1.089763e-04 -3.125738e+00 -3.231508e-02 -6.712444e-06 -3.966756e-02 6.812952e-04
133            1.058438e-04 -3.127097e+00 -3.189750e-02 1.124274e-04 -3.087577e+00 -3.256452e-02 -6.583673e-06 -3.952013e-02 6.670228e-04
134            1.093250e-04 -3.092209e+00 -3.216619e-02 1.157225e-04 -3.052878e+00 -3.281194e-02 -6.397515e-06 -3.933134e-02 6.457483e-04
135            1.118758e-04 -3.068797e+00 -3.234648e-02 1.180591e-04 -3.029621e+00 -3.296525e-02 -6.183304e-06 -3.917651e-02 6.187778e-04
136            1.129842e-04 -3.061378e+00 -3.235605e-02 1.189199e-04 -3.022282e+00 -3.294306e-02 -5.935676e-06 -3.909635e-02 5.870159e-04
137            1.122830e-04 -3.070377e+00 -3.210719e-02 1.179725e-04 -3.031249e+00 -3.266079e-02 -5.689438e-06 -3.912861e-02 5.536015e-04
138            1.099543e-04 -3.092244e+00 -3.158456e-02 1.153977e-04 -3.052981e+00 -3.210552e-02 -5.443385e-06 -3.926250e-02 5.209616e-04
139            1.064236e-04 -3.121022e+00 -3.081387e-02 1.116345e-04 -3.081536e+00 -3.130381e-02 -5.210825e-06 -3.948524e-02 4.899362e-04
140            1.021534e-04 -3.149631e+00 -2.985038e-02 1.071574e-04 -3.109882e+00 -3.031400e-02 -5.004083e-06 -3.974883e-02 4.636214e-04
141            9.786830e-05 -3.171292e+00 -2.879289e-02 1.026842e-04 -3.131278e+00 -2.923372e-02 -4.815867e-06 -4.001380e-02 4.408317e-04
142            9.403686e-05 -3.180703e+00 -2.772302e-02 9.869577e-05 -3.140481e+00 -2.814683e-02 -4.658915e-06 -4.022215e-02 4.238038e-04
143            9.124213e-05 -3.175382e+00 -2.673110e-02 9.574564e-05 -3.135038e+00 -2.713935e-02 -4.503512e-06 -4.034429e-02 4.082568e-04
144            8.954141e-05 -3.155967e+00 -2.584473e-02 9.390916e-05 -3.115615e+00 -2.624155e-02 -4.367754e-06 -4.035229e-02 3.968152e-04
145            8.925576e-05 -3.126555e+00 -2.512382e-02 9.346876e-05 -3.086294e+00 -2.550798e-02 -4.213001e-06 -4.026126e-02 3.841582e-04
146            9.003732e-05 -3.093664e+00 -2.455683e-02 9.411445e-05 -3.053572e+00 -2.493154e-02 -4.077130e-06 -4.009235e-02 3.747024e-04
147            9.196784e-05 -3.064662e+00 -2.417563e-02 9.588774e-05 -3.024760e+00 -2.453845e-02 -3.919899e-06 -3.990243e-02 3.628125e-04
148            9.444922e-05 -3.045714e+00 -2.393704e-02 9.824131e-05 -3.005979e+00 -2.429091e-02 -3.792095e-06 -3.973480e-02 3.538712e-04
149            9.736862e-05 -3.040366e+00 -2.384245e-02 1.010115e-04 -3.000726e+00 -2.418372e-02 -3.642847e-06 -3.963975e-02 3.412698e-04
150            9.996674e-05 -3.048768e+00 -2.380943e-02 1.034896e-04 -3.009136e+00 -2.414029e-02 -3.522854e-06 -3.963246e-02 3.308664e-04
151            1.021902e-04 -3.068072e+00 -2.382152e-02 1.055663e-04 -3.028349e+00 -2.413750e-02 -3.376131e-06 -3.972238e-02 3.159812e-04
152            1.035319e-04 -3.093183e+00 -2.381181e-02 1.067880e-04 -3.053300e+00 -2.411504e-02 -3.256058e-06 -3.988290e-02 3.032335e-04
153            1.041911e-04 -3.118194e+00 -2.378478e-02 1.072996e-04 -3.078105e+00 -2.407133e-02 -3.108531e-06 -4.008981e-02 2.865499e-04
154            1.039008e-04 -3.137295e+00 -2.370142e-02 1.068883e-04 -3.097001e+00 -2.397401e-02 -2.987546e-06 -4.029328e-02 2.725807e-04
155            1.031364e-04 -3.146083e+00 -2.360372e-02 1.059733e-04 -3.105623e+00 -2.385832e-02 -2.836855e-06 -4.045970e-02 2.545995e-04
156            1.018027e-04 -3.142279e+00 -2.347261e-02 1.045095e-04 -3.101731e+00 -2.371147e-02 -2.706778e-06 -4.054755e-02 2.388564e-04
157            1.004611e-04 -3.126476e+00 -2.335793e-02 1.029985e-04 -3.085928e+00 -2.357643e-02 -2.537456e-06 -4.054725e-02 2.184908e-04
158            9.904310e-05 -3.102023e+00 -2.324379e-02 1.014307e-04 -3.061567e+00 -2.344432e-02 -2.387598e-06 -4.045610e-02 2.005253e-04
159            9.811618e-05 -3.074381e+00 -2.318579e-02 1.003094e-04 -3.034077e+00 -2.336325e-02 -2.193206e-06 -4.030438e-02 1.774595e-04
160            9.751840e-05 -3.049705e+00 -2.316579e-02 9.953217e-05 -3.009577e+00 -2.332205e-02 -2.013770e-06 -4.012818e-02 1.562601e-04
161            9.765831e-05 -3.033372e+00 -2.323517e-02 9.944482e-05 -2.993398e+00 -2.336429e-02 -1.786505e-06 -3.997466e-02 1.291188e-04
162            9.811455e-05 -3.028646e+00 -2.335729e-02 9.968958e-05 -2.988767e+00 -2.346079e-02 -1.575027e-06 -3.987909e-02 1.035073e-04
163            9.903344e-05 -3.036005e+00 -2.355257e-02 1.003522e-04 -2.996140e+00 -2.362440e-02 -1.318735e-06 -3.986479e-02 7.183662e-05
164            9.973752e-05 -3.053250e+00 -2.374079e-02 1.008236e-04 -3.013316e+00 -2.378308e-02 -1.086128e-06 -3.993391e-02 4.229363e-05
165            1.002192e-04 -3.076182e+00 -2.391222e-02 1.010365e-04 -3.036108e+00 -2.392001e-02 -8.173121e-07 -4.007318e-02 7.796253e-06
166            9.977493e-05 -3.099561e+00 -2.397101e-02 1.003560e-04 -3.059307e+00 -2.394757e-02 -5.810941e-07 -4.025427e-02 -2.344005e-05
167            9.853096e-05 -3.118194e+00 -2.391542e-02 9.885168e-05 -3.077753e+00 -2.385775e-02 -3.207223e-07 -4.044090e-02 -5.767562e-05
168            9.604484e-05 -3.127947e+00 -2.368085e-02 9.615121e-05 -3.087353e+00 -2.359441e-02 -1.063761e-07 -4.059439e-02 -8.644471e-05
169            9.265486e-05 -3.126546e+00 -2.329525e-02 9.253532e-05 -3.085863e+00 -2.317889e-02 1.195475e-07 -4.068369e-02 -1.163606e-04
170            8.817327e-05 -3.114201e+00 -2.272559e-02 8.787880e-05 -3.073510e+00 -2.258568e-02 2.944694e-07 -4.069109e-02 -1.399080e-04
171            8.309360e-05 -3.093641e+00 -2.202124e-02 8.261465e-05 -3.053023e+00 -2.185719e-02 4.789501e-07 -4.061787e-02 -1.640536e-04
172            7.738014e-05 -3.069563e+00 -2.116792e-02 7.676972e-05 -3.029079e+00 -2.098669e-02 6.104215e-07 -4.048405e-02 -1.812316e-04
173            7.157473e-05 -3.047464e+00 -2.022735e-02 7.082598e-05 -3.007140e+00 -2.002897e-02 7.487434e-07 -4.032446e-02 -1.983773e-04
174            6.572158e-05 -3.032352e+00 -1.920497e-02 6.488252e-05 -2.992173e+00 -1.899598e-02 8.390610e-07 -4.017948e-02 -2.089904e-04
175            6.033372e-05 -3.027487e+00 -1.817469e-02 5.939768e-05 -2.987402e+00 -1.795500e-02 9.360433e-07 -4.008473e-02 -2.196882e-04
176            5.537433e-05 -3.033618e+00 -1.714290e-02 5.438561e-05 -2.993555e+00 -1.691842e-02 9.887164e-07 -4.006258e-02 -2.244750e-04
177            5.113446e-05 -3.049052e+00 -1.615964e-02 5.008372e-05 -3.008933e+00 -1.592986e-02 1.050736e-06 -4.011881e-02 -2.297839e-04
178            4.736564e-05 -3.070125e+00 -1.520718e-02 4.629275e-05 -3.029882e+00 -1.497717e-02 1.072887e-06 -4.024255e-02 -2.300043e-04
179            4.413913e-05 -3.092042e+00 -1.430657e-02 4.303863e-05 -3.051633e+00 -1.407611e-02 1.100498e-06 -4.040902e-02 -2.304600e-04
180            4.108223e-05 -3.109922e+00 -1.341977e-02 3.999375e-05 -3.069338e+00 -1.319375e-02 1.088479e-06 -4.058432e-02 -2.260212e-04
181            3.817519e-05 -3.119906e+00 -1.255461e-02 3.709902e-05 -3.079170e+00 -1.233337e-02 1.076169e-06 -4.073572e-02 -2.212346e-04
182            3.513352e-05 -3.119255e+00 -1.167859e-02 3.410738e-05 -3.078427e+00 -1.146669e-02 1.026135e-06 -4.082820e-02 -2.119001e-04
183            3.194612e-05 -3.107998e+00 -1.079767e-02 3.097531e-05 -3.067156e+00 -1.059591e-02 9.708093e-07 -4.084220e-02 -2.017576e-04
184            2.833904e-05 -3.088659e+00 -9.882241e-03 2.746214e-05 -3.047882e+00 -9.695069e-03 8.768996e-07 -4.077686e-02 -1.871726e-04
185            2.448477e-05 -3.065745e+00 -8.951636e-03 2.370977e-05 -3.025094e+00 -8.780108e-03 7.750070e-07 -4.065033e-02 -1.715277e-04
186            2.031728e-05 -3.044616e+00 -7.988352e-03 1.968512e-05 -3.004121e+00 -7.837385e-03 6.321605e-07 -4.049564e-02 -1.509674e-04
187            1.619026e-05 -3.030195e+00 -7.027675e-03 1.570966e-05 -2.989842e+00 -6.898614e-03 4.805955e-07 -4.035320e-02 -1.290619e-04
188            1.219311e-05 -3.025702e+00 -6.074513e-03 1.190112e-05 -2.985445e+00 -5.972063e-03 2.919872e-07 -4.025750e-02 -1.024501e-04
189            8.788667e-06 -3.031869e+00 -5.182713e-03 8.687782e-06 -2.991636e+00 -5.107856e-03 1.008855e-07 -4.023206e-02 -7.485715e-05
190            6.056227e-06 -3.047001e+00 -4.365555e-03 6.174276e-06 -3.006719e+00 -4.322008e-03 -1.180490e-07 -4.028197e-02 -4.354711e-05
191            4.326041e-06 -3.067446e+00 -3.673243e-03 4.654921e-06 -3.027049e+00 -3.660639e-03 -3.288794e-07 -4.039711e-02 -1.260423e-05
192            3.461337e-06 -3.088428e+00 -3.100125e-03 4.021486e-06 -3.047876e+00 -3.121156e-03 -5.601490e-07 -4.055146e-02 2.103088e-05
193            3.562227e-06 -3.105144e+00 -2.672364e-03 4.335918e-06 -3.064432e+00 -2.725038e-03 -7.736911e-07 -4.071191e-02 5.267375e-05
194            4.280120e-06 -3.113581e+00 -2.356853e-03 5.279250e-06 -3.072740e+00 -2.442562e-03 -9.991298e-07 -4.084127e-02 8.570875e-05
195            5.642442e-06 -3.112155e+00 -2.170513e-03 6.842111e-06 -3.071243e+00 -2.285995e-03 -1.199669e-06 -4.091172e-02 1.154827e-04
196            7.159244e-06 -3.100673e+00 -2.061278e-03 8.569001e-06 -3.059768e+00 -2.207163e-03 -1.409757e-06 -4.090458e-02 1.458845e-04
197            8.852750e-06 -3.081818e+00 -2.037947e-03 1.044941e-05 -3.040996e+00 -2.210892e-03 -1.596659e-06 -4.082225e-02 1.729444e-04
198            1.034268e-05 -3.060016e+00 -2.054512e-03 1.213972e-05 -3.019334e+00 -2.255351e-03 -1.797043e-06 -4.068224e-02 2.008383e-04
199            1.170907e-05 -3.040410e+00 -2.113822e-03 1.368580e-05 -2.999890e+00 -2.339452e-03 -1.976724e-06 -4.051975e-02 2.256303e-04
200            1.273369e-05 -3.027691e+00 -2.179669e-03 1.490842e-05 -2.987320e+00 -2.431650e-03 -2.174730e-06 -4.037090e-02 2.519811e-04
201            1.371826e-05 -3.024531e+00 -2.272802e-03 1.606921e-05 -2.984260e+00 -2.548085e-03 -2.350955e-06 -4.027085e-02 2.752829e-04
202            1.457322e-05 -3.031326e+00 -2.367059e-03 1.711010e-05 -2.991090e+00 -2.666534e-03 -2.536884e-06 -4.023636e-02 2.994752e-04
203            1.572286e-05 -3.046524e+00 -2.509679e-03 1.841270e-05 -3.006249e+00 -2.829305e-03 -2.689844e-06 -4.027534e-02 3.196265e-04
204            1.712763e-05 -3.066402e+00 -2.692275e-03 1.997295e-05 -3.026029e+00 -3.032281e-03 -2.845318e-06 -4.037282e-02 3.400060e-04
205            1.912138e-05 -3.086347e+00 -2.958541e-03 2.208145e-05 -3.045840e+00 -3.314075e-03 -2.960068e-06 -4.050650e-02 3.555344e-04
206            2.153583e-05 -3.101674e+00 -3.299636e-03 2.461439e-05 -3.061034e+00 -3.671144e-03 -3.078565e-06 -4.064008e-02 3.715072e-04
207            2.455190e-05 -3.109113e+00 -3.736508e-03 2.770590e-05 -3.068369e+00 -4.118691e-03 -3.153994e-06 -4.074364e-02 3.821833e-04
208            2.789757e-05 -3.106869e+00 -4.243172e-03 3.112618e-05 -3.066082e+00 -4.635734e-03 -3.228601e-06 -4.078689e-02 3.925617e-04
209            3.166433e-05 -3.095539e+00 -4.828657e-03 3.491890e-05 -3.054780e+00 -5.225388e-03 -3.254572e-06 -4.075967e-02 3.967313e-04
210            3.547547e-05 -3.077576e+00 -5.461526e-03 3.875865e-05 -3.036914e+00 -5.862276e-03 -3.283178e-06 -4.066143e-02 4.007492e-04
211            3.935694e-05 -3.057387e+00 -6.149053e-03 4.262906e-05 -3.016870e+00 -6.548422e-03 -3.272123e-06 -4.051645e-02 3.993687e-04
212            4.293322e-05 -3.039924e+00 -6.853841e-03 4.620530e-05 -2.999570e+00 -7.252399e-03 -3.272083e-06 -4.035425e-02 3.985585e-04
213            4.623995e-05 -3.029241e+00 -7.565854e-03 4.947367e-05 -2.989027e+00 -7.958199e-03 -3.233714e-06 -4.021490e-02 3.923453e-04
214            4.892532e-05 -3.027632e+00 -8.223047e-03 5.212866e-05 -2.987508e+00 -8.609571e-03 -3.203339e-06 -4.012419e-02 3.865238e-04
215            5.120410e-05 -3.035542e+00 -8.849073e-03 5.434496e-05 -2.995438e+00 -9.225567e-03 -3.140853e-06 -4.010455e-02 3.764949e-04
216            5.285394e-05 -3.050890e+00 -9.401827e-03 5.594754e-05 -3.010736e+00 -9.769857e-03 -3.093600e-06 -4.015410e-02 3.680299e-04