# Force       
# CofR        : (-1.000000e+01 0.000000e+00 0.000000e+00)
#
# Time        	total_x total_y total_z	pressure_x pressure_y pressure_z	viscous_x viscous_y viscous_z
1              1.234425e+02 4.177225e-03 1.656589e+01 1.232606e+02 4.175534e-03 1.656705e+01 1.818722e-01 1.691565e-06 -1.153306e-03
2              2.888723e+01 4.554403e-02 5.243000e+00 3.421867e+01 4.523226e-02 5.271141e+00 -5.331442e+00 3.117716e-04 -2.814066e-02
3              1.354324e+02 2.848324e-01 1.963850e+00 1.366051e+02 2.838800e-01 2.035745e+00 -1.172755e+00 9.524380e-04 -7.189504e-02
4              8.977985e+00 4.461712e-01 -1.379467e+01 9.322235e+00 4.470476e-01 -1.378523e+01 -3.442499e-01 -8.764006e-04 -9.442373e-03
5              -5.745953e+00 2.701560e-01 -2.335169e+00 -5.634045e+00 2.705018e-01 -2.364307e+00 -1.119085e-01 -3.457438e-04 2.913738e-02
6              1.127447e+00 2.413419e-01 8.656822e+00 1.119664e+00 2.393802e-01 8.613394e+00 7.782273e-03 1.961675e-03 4.342809e-02
7              5.236557e+00 2.186934e-01 1.255961e+01 5.107886e+00 2.166157e-01 1.248726e+01 1.286714e-01 2.077672e-03 7.234629e-02
8              5.456928e+00 2.154096e-01 9.686744e+00 5.268000e+00 2.122928e-01 9.587520e+00 1.889285e-01 3.116839e-03 9.922412e-02
9              3.277304e+00 1.946068e-01 5.378233e+00 3.055415e+00 1.899266e-01 5.277122e+00 2.218892e-01 4.680193e-03 1.011113e-01
10             7.223277e-01 1.204254e-01 2.995228e-01 5.256063e-01 1.143601e-01 2.150904e-01 1.967214e-01 6.065241e-03 8.443237e-02
11             -6.113994e-01 1.147933e-03 -3.835821e+00 -7.980545e-01 -4.502069e-03 -3.891772e+00 1.866551e-01 5.650001e-03 5.595088e-02
12             -1.137168e+00 -1.162393e-01 -6.370836e+00 -1.300889e+00 -1.221909e-01 -6.401646e+00 1.637211e-01 5.951587e-03 3.081006e-02
13             -9.781524e-01 -2.379422e-01 -7.396968e+00 -1.128937e+00 -2.427127e-01 -7.409334e+00 1.507844e-01 4.770577e-03 1.236695e-02
14             -8.707926e-01 -3.207008e-01 -7.387870e+00 -9.949751e-01 -3.255378e-01 -7.391408e+00 1.241825e-01 4.836999e-03 3.538362e-03
15             -4.783773e-01 -2.965654e-01 -6.729655e+00 -5.939303e-01 -3.021560e-01 -6.725477e+00 1.155530e-01 5.590596e-03 -4.177257e-03
16             -1.138746e-01 -3.019201e-01 -5.769114e+00 -2.142805e-01 -3.075440e-01 -5.759837e+00 1.004058e-01 5.623931e-03 -9.277236e-03
17             2.957842e-01 -2.946766e-01 -5.060338e+00 2.110864e-01 -3.010546e-01 -5.045520e+00 8.469783e-02 6.378004e-03 -1.481854e-02
18             5.576542e-01 -2.674851e-01 -4.451584e+00 4.848137e-01 -2.745473e-01 -4.432550e+00 7.284060e-02 7.062127e-03 -1.903398e-02
19             6.213395e-01 -2.216877e-01 -3.915472e+00 5.596339e-01 -2.279781e-01 -3.895025e+00 6.170561e-02 6.290499e-03 -2.044694e-02
20             4.684507e-01 -1.469473e-01 -3.239606e+00 4.203400e-01 -1.527331e-01 -3.221479e+00 4.811072e-02 5.785812e-03 -1.812712e-02
21             2.869041e-01 -6.319876e-02 -2.391662e+00 2.445254e-01 -6.953295e-02 -2.375618e+00 4.237871e-02 6.334190e-03 -1.604370e-02
22             1.912626e-01 1.868653e-02 -1.470186e+00 1.549457e-01 1.306392e-02 -1.460285e+00 3.631691e-02 5.622613e-03 -9.901077e-03
23             2.995902e-01 1.012489e-01 -6.878831e-01 2.662318e-01 9.552227e-02 -6.820515e-01 3.335839e-02 5.726647e-03 -5.831599e-03
24             5.242777e-01 1.587494e-01 -1.320875e-01 4.925581e-01 1.532977e-01 -1.283202e-01 3.171958e-02 5.451640e-03 -3.767229e-03
25             7.672608e-01 1.883203e-01 2.152790e-01 7.363668e-01 1.821748e-01 2.173771e-01 3.089399e-02 6.145531e-03 -2.098174e-03
26             9.157600e-01 1.918906e-01 3.753888e-01 8.862789e-01 1.859519e-01 3.767792e-01 2.948116e-02 5.938703e-03 -1.390349e-03
27             9.824315e-01 1.762343e-01 4.599896e-01 9.540285e-01 1.698779e-01 4.606139e-01 2.840298e-02 6.356456e-03 -6.243107e-04
28             9.769126e-01 1.391033e-01 5.158515e-01 9.508263e-01 1.334243e-01 5.164871e-01 2.608628e-02 5.678981e-03 -6.355165e-04
29             9.314479e-01 1.091726e-01 5.355197e-01 9.070087e-01 1.030560e-01 5.362258e-01 2.443918e-02 6.116534e-03 -7.061130e-04
30             8.704564e-01 1.015889e-01 5.052398e-01 8.477575e-01 9.572064e-02 5.063690e-01 2.269891e-02 5.868224e-03 -1.129244e-03
31             8.310334e-01 1.165992e-01 4.595756e-01 8.078695e-01 1.103405e-01 4.609770e-01 2.316388e-02 6.258718e-03 -1.401361e-03
32             8.095602e-01 1.369113e-01 4.028363e-01 7.858779e-01 1.309417e-01 4.047184e-01 2.368226e-02 5.969562e-03 -1.882131e-03
33             8.075929e-01 1.453534e-01 3.598319e-01 7.821739e-01 1.391413e-01 3.617004e-01 2.541893e-02 6.212179e-03 -1.868497e-03
34             8.051997e-01 1.348955e-01 3.416192e-01 7.780331e-01 1.290802e-01 3.435142e-01 2.716665e-02 5.815359e-03 -1.894988e-03
35             7.911270e-01 1.116457e-01 3.511055e-01 7.623152e-01 1.061644e-01 3.529933e-01 2.881172e-02 5.481301e-03 -1.887807e-03
36             7.681876e-01 8.292539e-02 3.843446e-01 7.381860e-01 7.812497e-02 3.861153e-01 3.000162e-02 4.800415e-03 -1.770634e-03
37             7.445116e-01 5.320824e-02 4.334306e-01 7.137331e-01 4.926321e-02 4.351179e-01 3.077844e-02 3.945035e-03 -1.687335e-03
38             7.310582e-01 2.531763e-02 4.843370e-01 6.998065e-01 2.242836e-02 4.857701e-01 3.125172e-02 2.889268e-03 -1.433138e-03
39             7.237268e-01 -4.849162e-05 5.282817e-01 6.917623e-01 -1.947315e-03 5.294068e-01 3.196448e-02 1.898824e-03 -1.125083e-03
40             7.234481e-01 -2.049980e-02 5.619766e-01 6.905031e-01 -2.139910e-02 5.627536e-01 3.294494e-02 8.992968e-04 -7.769949e-04
41             7.214198e-01 -3.437077e-02 5.836142e-01 6.877619e-01 -3.458194e-02 5.841938e-01 3.365796e-02 2.111685e-04 -5.795587e-04
42             7.087604e-01 -4.536282e-02 6.001496e-01 6.741994e-01 -4.499542e-02 6.005638e-01 3.456104e-02 -3.673985e-04 -4.142080e-04
43             6.972763e-01 -5.303690e-02 6.048147e-01 6.616710e-01 -5.233747e-02 6.052064e-01 3.560536e-02 -6.994205e-04 -3.917219e-04
44             6.858543e-01 -5.850384e-02 6.043240e-01 6.493688e-01 -5.765190e-02 6.046095e-01 3.648544e-02 -8.519399e-04 -2.855716e-04
45             6.778741e-01 -6.192384e-02 6.010455e-01 6.406005e-01 -6.110737e-02 6.012241e-01 3.727362e-02 -8.164734e-04 -1.786423e-04
46             6.753822e-01 -6.209481e-02 5.973188e-01 6.372727e-01 -6.135912e-02 5.973709e-01 3.810953e-02 -7.356910e-04 -5.217307e-05
47             6.785544e-01 -5.787958e-02 5.901357e-01 6.398351e-01 -5.722712e-02 5.900312e-01 3.871938e-02 -6.524675e-04 1.045669e-04
48             6.837117e-01 -4.819932e-02 5.779768e-01 6.444936e-01 -4.767238e-02 5.776687e-01 3.921808e-02 -5.269420e-04 3.081007e-04
49             6.905939e-01 -3.211790e-02 5.590951e-01 6.509259e-01 -3.169627e-02 5.585460e-01 3.966801e-02 -4.216325e-04 5.491199e-04
50             6.957493e-01 -1.018425e-02 5.374558e-01 6.556945e-01 -9.995660e-03 5.366153e-01 4.005476e-02 -1.885912e-04 8.405240e-04
51             7.001801e-01 1.450701e-02 5.157008e-01 6.596777e-01 1.444469e-02 5.146143e-01 4.050247e-02 6.232277e-05 1.086531e-03
52             7.006234e-01 3.728982e-02 4.953360e-01 6.597077e-01 3.688068e-02 4.940456e-01 4.091565e-02 4.091396e-04 1.290350e-03
53             6.977977e-01 5.330983e-02 4.776334e-01 6.562944e-01 5.262486e-02 4.762095e-01 4.150330e-02 6.849660e-04 1.423903e-03
54             6.906565e-01 6.086602e-02 4.625882e-01 6.486174e-01 5.991776e-02 4.610145e-01 4.203907e-02 9.482576e-04 1.573668e-03
55             6.799857e-01 6.071893e-02 4.494724e-01 6.373347e-01 5.962465e-02 4.477537e-01 4.265100e-02 1.094280e-03 1.718768e-03
56             6.659889e-01 5.540865e-02 4.385812e-01 6.227612e-01 5.420231e-02 4.366985e-01 4.322766e-02 1.206338e-03 1.882718e-03
57             6.503127e-01 4.686067e-02 4.296526e-01 6.064814e-01 4.561595e-02 4.276093e-01 4.383126e-02 1.244721e-03 2.043294e-03
58             6.343138e-01 3.624225e-02 4.222160e-01 5.899201e-01 3.497919e-02 4.199959e-01 4.439377e-02 1.263059e-03 2.220112e-03
59             6.195752e-01 2.412020e-02 4.150821e-01 5.744784e-01 2.289269e-02 4.127157e-01 4.509680e-02 1.227505e-03 2.366470e-03
60             6.064522e-01 1.139857e-02 4.074233e-01 5.607148e-01 1.023215e-02 4.049156e-01 4.573745e-02 1.166425e-03 2.507684e-03
61             5.949882e-01 -9.843512e-04 3.991174e-01 5.485209e-01 -2.072829e-03 3.964990e-01 4.646726e-02 1.088477e-03 2.618433e-03
62             5.848365e-01 -1.212211e-02 3.903880e-01 5.376508e-01 -1.313397e-02 3.876525e-01 4.718573e-02 1.011853e-03 2.735479e-03
63             5.752801e-01 -2.141108e-02 3.812496e-01 5.273381e-01 -2.232501e-02 3.784022e-01 4.794199e-02 9.139281e-04 2.847400e-03
64             5.662848e-01 -2.842109e-02 3.718159e-01 5.176243e-01 -2.924489e-02 3.688401e-01 4.866059e-02 8.238052e-04 2.975837e-03
65             5.581577e-01 -3.304329e-02 3.631062e-01 5.087637e-01 -3.374850e-02 3.599937e-01 4.939403e-02 7.052101e-04 3.112502e-03
66             5.503534e-01 -3.579516e-02 3.539363e-01 5.002588e-01 -3.639348e-02 3.506703e-01 5.009462e-02 5.983191e-04 3.266054e-03
67             5.423272e-01 -3.684936e-02 3.413263e-01 4.914820e-01 -3.730832e-02 3.379261e-01 5.084526e-02 4.589606e-04 3.400155e-03
68             5.347763e-01 -3.604773e-02 3.346669e-01 4.831982e-01 -3.637557e-02 3.311243e-01 5.157817e-02 3.278440e-04 3.542635e-03
69             5.279749e-01 -3.373037e-02 3.273475e-01 4.756228e-01 -3.391990e-02 3.236808e-01 5.235211e-02 1.895301e-04 3.666705e-03
70             5.218447e-01 -3.018539e-02 3.196540e-01 4.687145e-01 -3.024840e-02 3.158665e-01 5.313027e-02 6.300998e-05 3.787476e-03
71             5.162044e-01 -2.575493e-02 3.114540e-01 4.622525e-01 -2.569915e-02 3.075688e-01 5.395190e-02 -5.577941e-05 3.885150e-03
72             5.111091e-01 -2.079345e-02 3.026881e-01 4.563396e-01 -2.063697e-02 2.987105e-01 5.476944e-02 -1.564848e-04 3.977657e-03
73             5.064709e-01 -1.568338e-02 2.936418e-01 4.508414e-01 -1.544375e-02 2.895944e-01 5.562959e-02 -2.396304e-04 4.047402e-03
74             5.022827e-01 -1.075945e-02 2.850172e-01 4.457823e-01 -1.045495e-02 2.809096e-01 5.650043e-02 -3.044950e-04 4.107566e-03
75             4.984892e-01 -6.434289e-03 2.775978e-01 4.410916e-01 -6.079006e-03 2.734462e-01 5.739758e-02 -3.552834e-04 4.151598e-03
76             4.951063e-01 -3.078912e-03 2.720442e-01 4.368118e-01 -2.683159e-03 2.678561e-01 5.829452e-02 -3.957526e-04 4.188117e-03
77             4.922529e-01 -8.995854e-04 2.685443e-01 4.330495e-01 -4.678846e-04 2.643264e-01 5.920336e-02 -4.317009e-04 4.217859e-03
78             4.899001e-01 1.376609e-04 2.667722e-01 4.297960e-01 6.040037e-04 2.625271e-01 6.010406e-02 -4.663428e-04 4.245115e-03
79             4.879621e-01 2.057805e-04 2.661634e-01 4.269632e-01 7.061600e-04 2.618947e-01 6.099891e-02 -5.003795e-04 4.268644e-03
80             4.863079e-01 -4.751278e-04 2.661441e-01 4.244316e-01 5.985283e-05 2.618560e-01 6.187623e-02 -5.349806e-04 4.288046e-03
81             4.848291e-01 -1.628194e-03 2.662241e-01 4.220933e-01 -1.059379e-03 2.619229e-01 6.273579e-02 -5.688155e-04 4.301212e-03
82             4.834535e-01 -2.988741e-03 2.660506e-01 4.198867e-01 -2.388118e-03 2.617434e-01 6.356681e-02 -6.006235e-04 4.307171e-03
83             4.821461e-01 -4.295837e-03 2.653919e-01 4.177763e-01 -3.668065e-03 2.610866e-01 6.436974e-02 -6.277723e-04 4.305304e-03
84             4.809388e-01 -5.326953e-03 2.641096e-01 4.158013e-01 -4.678051e-03 2.598138e-01 6.513745e-02 -6.489012e-04 4.295776e-03
85             4.799226e-01 -5.867435e-03 2.621803e-01 4.140530e-01 -5.207119e-03 2.579031e-01 6.586952e-02 -6.603167e-04 4.277205e-03
86             4.791989e-01 -5.811101e-03 2.597224e-01 4.126372e-01 -5.150145e-03 2.554722e-01 6.656168e-02 -6.609558e-04 4.250174e-03
87             4.788449e-01 -5.124554e-03 2.570550e-01 4.116311e-01 -4.475534e-03 2.528398e-01 6.721386e-02 -6.490202e-04 4.215205e-03
88             4.788600e-01 -3.894981e-03 2.546998e-01 4.110368e-01 -3.271240e-03 2.505232e-01 6.782324e-02 -6.237412e-04 4.176598e-03
89             4.791801e-01 -2.280053e-03 2.532417e-01 4.107902e-01 -1.695352e-03 2.491027e-01 6.838989e-02 -5.847009e-04 4.138967e-03
90             4.797138e-01 -5.611048e-04 2.531723e-01 4.108022e-01 -2.624191e-05 2.490638e-01 6.891155e-02 -5.348629e-04 4.108560e-03
91             4.804000e-01 1.003956e-03 2.546611e-01 4.110145e-01 1.481135e-03 2.505733e-01 6.938549e-02 -4.771783e-04 4.087781e-03
92             4.812453e-01 2.230740e-03 2.573428e-01 4.114332e-01 2.649705e-03 2.532668e-01 6.981212e-02 -4.189645e-04 4.076008e-03
93             4.821111e-01 2.918254e-03 2.612229e-01 4.119184e-01 3.282679e-03 2.571531e-01 7.019268e-02 -3.644250e-04 4.069837e-03
94             4.828005e-01 2.958300e-03 2.656742e-01 4.122851e-01 3.276089e-03 2.616085e-01 7.051538e-02 -3.177889e-04 4.065716e-03
95             4.835045e-01 2.635834e-03 2.699329e-01 4.127030e-01 2.917887e-03 2.658757e-01 7.080156e-02 -2.820532e-04 4.057189e-03
96             4.841180e-01 1.951429e-03 2.736738e-01 4.130661e-01 2.210244e-03 2.696328e-01 7.105190e-02 -2.588144e-04 4.040996e-03
97             4.846207e-01 1.023083e-03 2.766612e-01 4.133521e-01 1.269641e-03 2.726469e-01 7.126860e-02 -2.465586e-04 4.014297e-03
98             4.850546e-01 -5.620449e-06 2.787933e-01 4.136001e-01 2.375625e-04 2.748163e-01 7.145452e-02 -2.431829e-04 3.976972e-03
99             4.854827e-01 -9.509384e-04 2.801157e-01 4.138696e-01 -7.052599e-04 2.761860e-01 7.161303e-02 -2.456786e-04 3.929657e-03
100            4.859491e-01 -1.654119e-03 2.808213e-01 4.142016e-01 -1.402527e-03 2.769468e-01 7.174749e-02 -2.515921e-04 3.874577e-03
101            4.864766e-01 -1.971414e-03 2.812289e-01 4.146160e-01 -1.713358e-03 2.774134e-01 7.186064e-02 -2.580559e-04 3.815469e-03
102            4.870764e-01 -1.835334e-03 2.817170e-01 4.151227e-01 -1.572366e-03 2.779609e-01 7.195369e-02 -2.629677e-04 3.756074e-03
103            4.877337e-01 -1.258405e-03 2.826272e-01 4.157073e-01 -9.934466e-04 2.789260e-01 7.202641e-02 -2.649584e-04 3.701171e-03
104            4.884075e-01 -3.680191e-04 2.842397e-01 4.163270e-01 -1.034308e-04 2.805865e-01 7.208048e-02 -2.645883e-04 3.653249e-03
105            4.891430e-01 6.878529e-04 2.864306e-01 4.170251e-01 9.498083e-04 2.828168e-01 7.211787e-02 -2.619554e-04 3.613819e-03
106            4.900126e-01 1.747414e-03 2.891828e-01 4.178693e-01 2.006254e-03 2.856009e-01 7.214325e-02 -2.588396e-04 3.581905e-03
107            4.908276e-01 2.603185e-03 2.920702e-01 4.186768e-01 2.860457e-03 2.885142e-01 7.215083e-02 -2.572728e-04 3.555957e-03
108            4.916224e-01 3.120873e-03 2.948231e-01 4.194787e-01 3.379760e-03 2.912897e-01 7.214363e-02 -2.588870e-04 3.533436e-03
109            4.923861e-01 3.261773e-03 2.971642e-01 4.202618e-01 3.525757e-03 2.936528e-01 7.212426e-02 -2.639837e-04 3.511458e-03
110            4.931050e-01 3.038649e-03 2.989159e-01 4.210110e-01 3.311203e-03 2.954286e-01 7.209408e-02 -2.725534e-04 3.487280e-03
111            4.937648e-01 2.528192e-03 3.000354e-01 4.217105e-01 2.811990e-03 2.965764e-01 7.205429e-02 -2.837985e-04 3.458996e-03
112            4.943776e-01 1.832748e-03 3.006093e-01 4.223716e-01 2.129278e-03 2.971833e-01 7.200597e-02 -2.965304e-04 3.425973e-03
113            4.949495e-01 1.086147e-03 3.008195e-01 4.229987e-01 1.395286e-03 2.974309e-01 7.195079e-02 -3.091390e-04 3.388646e-03
114            4.954920e-01 4.129003e-04 3.009057e-01 4.236027e-01 7.330339e-04 2.975572e-01 7.188924e-02 -3.201335e-04 3.348535e-03
115            4.960095e-01 -6.962090e-05 3.011108e-01 4.241871e-01 2.583314e-04 2.978033e-01 7.182238e-02 -3.279522e-04 3.307420e-03
116            4.965138e-01 -2.878160e-04 3.016347e-01 4.247637e-01 4.346201e-05 2.983669e-01 7.175005e-02 -3.312781e-04 3.267805e-03
117            4.969938e-01 -2.248118e-04 3.025914e-01 4.253214e-01 1.045614e-04 2.993601e-01 7.167233e-02 -3.293733e-04 3.231285e-03
118            4.974416e-01 7.674521e-05 3.039866e-01 4.258523e-01 3.988368e-04 3.007874e-01 7.158928e-02 -3.220916e-04 3.199212e-03
119            4.978378e-01 5.259875e-04 3.057179e-01 4.263366e-01 8.360482e-04 3.025460e-01 7.150113e-02 -3.100607e-04 3.171925e-03
120            4.981748e-01 1.009472e-03 3.076027e-01 4.267665e-01 1.304173e-03 3.044539e-01 7.140823e-02 -2.947012e-04 3.148784e-03
121            4.984386e-01 1.417503e-03 3.094212e-01 4.271274e-01 1.695064e-03 3.062922e-01 7.131122e-02 -2.775608e-04 3.129019e-03
122            4.986293e-01 1.656959e-03 3.109635e-01 4.274179e-01 1.917129e-03 3.078531e-01 7.121137e-02 -2.601700e-04 3.110416e-03
123            4.987426e-01 1.676050e-03 3.120918e-01 4.276337e-01 1.919774e-03 3.089996e-01 7.110896e-02 -2.437247e-04 3.092172e-03
124            4.987940e-01 1.460069e-03 3.127680e-01 4.277893e-01 1.689431e-03 3.096954e-01 7.100472e-02 -2.293612e-04 3.072585e-03
125            4.987908e-01 1.033467e-03 3.130611e-01 4.278924e-01 1.250544e-03 3.100089e-01 7.089838e-02 -2.170775e-04 3.052170e-03
126            4.987567e-01 4.513567e-04 3.131204e-01 4.279664e-01 6.583746e-04 3.100900e-01 7.079024e-02 -2.070179e-04 3.030362e-03
127            4.987107e-01 -2.047162e-04 3.131391e-01 4.280301e-01 -5.947365e-06 3.101301e-01 7.068062e-02 -1.987689e-04 3.008991e-03
128            4.986829e-01 -8.400090e-04 3.132944e-01 4.281135e-01 -6.483276e-04 3.103058e-01 7.056947e-02 -1.916814e-04 2.988641e-03
129            4.986872e-01 -1.362610e-03 3.137139e-01 4.282309e-01 -1.177358e-03 3.107426e-01 7.045630e-02 -1.852522e-04 2.971231e-03
130            4.987440e-01 -1.702001e-03 3.144459e-01 4.284020e-01 -1.523208e-03 3.114892e-01 7.034200e-02 -1.787937e-04 2.956719e-03
131            4.988484e-01 -1.820516e-03 3.154635e-01 4.286221e-01 -1.648842e-03 3.125174e-01 7.022638e-02 -1.716746e-04 2.946115e-03
132            4.989950e-01 -1.716990e-03 3.166772e-01 4.288859e-01 -1.553318e-03 3.137393e-01 7.010913e-02 -1.636716e-04 2.937894e-03
133            4.991609e-01 -1.432820e-03 3.179618e-01 4.291708e-01 -1.277633e-03 3.150298e-01 6.999014e-02 -1.551868e-04 2.931967e-03
134            4.993293e-01 -1.030681e-03 3.191746e-01 4.294595e-01 -8.840276e-04 3.162478e-01 6.986980e-02 -1.466538e-04 2.926770e-03
135            4.994750e-01 -5.885754e-04 3.201959e-01 4.297270e-01 -4.493802e-04 3.172743e-01 6.974799e-02 -1.391953e-04 2.921693e-03
136            4.995916e-01 -1.840375e-04 3.209397e-01 4.299666e-01 -5.043616e-05 3.180248e-01 6.962502e-02 -1.336013e-04 2.914987e-03
137            4.996693e-01 1.197442e-04 3.213859e-01 4.301682e-01 2.499645e-04 3.184793e-01 6.950111e-02 -1.302204e-04 2.906567e-03
138            4.997155e-01 2.810290e-04 3.215846e-01 4.303388e-01 4.106111e-04 3.186886e-01 6.937668e-02 -1.295820e-04 2.895961e-03
139            4.997297e-01 2.839551e-04 3.216444e-01 4.304777e-01 4.160627e-04 3.187602e-01 6.925197e-02 -1.321076e-04 2.884213e-03
140            4.997237e-01 1.404261e-04 3.216939e-01 4.305964e-01 2.779281e-04 3.188223e-01 6.912729e-02 -1.375020e-04 2.871622e-03
141            4.997002e-01 -1.078537e-04 3.218511e-01 4.306971e-01 3.718487e-05 3.189920e-01 6.900308e-02 -1.450385e-04 2.859154e-03
142            4.996338e-01 -4.059473e-04 3.221389e-01 4.307533e-01 -2.515684e-04 3.192913e-01 6.888057e-02 -1.543790e-04 2.847584e-03
143            4.996095e-01 -6.913011e-04 3.226815e-01 4.308489e-01 -5.261768e-04 3.198419e-01 6.876065e-02 -1.651243e-04 2.839543e-03
144            4.996458e-01 -9.064491e-04 3.234343e-01 4.310021e-01 -7.304806e-04 3.205998e-01 6.864368e-02 -1.759686e-04 2.834515e-03
145            4.996656e-01 -1.006987e-03 3.242171e-01 4.311351e-01 -8.211623e-04 3.213851e-01 6.853047e-02 -1.858252e-04 2.832007e-03
146            4.996809e-01 -9.773520e-04 3.249662e-01 4.312597e-01 -7.829585e-04 3.221344e-01 6.842120e-02 -1.943935e-04 2.831806e-03
147            4.996782e-01 -8.312320e-04 3.256044e-01 4.313623e-01 -6.298217e-04 3.227711e-01 6.831592e-02 -2.014103e-04 2.833289e-03
148            4.996518e-01 -5.967960e-04 3.260678e-01 4.314369e-01 -3.903465e-04 3.232322e-01 6.821494e-02 -2.064496e-04 2.835575e-03
149            4.995942e-01 -3.251443e-04 3.263273e-01 4.314765e-01 -1.152436e-04 3.234896e-01 6.811774e-02 -2.099007e-04 2.837734e-03
150            4.995062e-01 -7.287133e-05 3.263919e-01 4.314835e-01 1.386783e-04 3.235529e-01 6.802267e-02 -2.115497e-04 2.838935e-03
151            4.993903e-01 1.099954e-04 3.263110e-01 4.314599e-01 3.215404e-04 3.234709e-01 6.793038e-02 -2.115450e-04 2.840115e-03
152            4.992617e-01 1.874134e-04 3.261579e-01 4.314219e-01 3.982199e-04 3.233174e-01 6.783978e-02 -2.108065e-04 2.840444e-03
153            4.991286e-01 1.361981e-04 3.260236e-01 4.313780e-01 3.463621e-04 3.231830e-01 6.775065e-02 -2.101640e-04 2.840539e-03
154            4.990088e-01 -3.902632e-05 3.259857e-01 4.313459e-01 1.703079e-04 3.231450e-01 6.766288e-02 -2.093342e-04 2.840681e-03
155            4.989092e-01 -3.202824e-04 3.260956e-01 4.313329e-01 -1.115225e-04 3.232540e-01 6.757635e-02 -2.087599e-04 2.841554e-03
156            4.988436e-01 -6.686984e-04 3.263608e-01 4.313527e-01 -4.607582e-04 3.235176e-01 6.749088e-02 -2.079403e-04 2.843234e-03
157            4.988145e-01 -1.039841e-03 3.267578e-01 4.314072e-01 -8.331487e-04 3.239114e-01 6.740726e-02 -2.066919e-04 2.846378e-03
158            4.988206e-01 -1.384903e-03 3.272263e-01 4.314960e-01 -1.180613e-03 3.243765e-01 6.732460e-02 -2.042901e-04 2.849842e-03
159            4.988516e-01 -1.671330e-03 3.276933e-01 4.316083e-01 -1.470488e-03 3.248395e-01 6.724327e-02 -2.008424e-04 2.853744e-03
160            4.989046e-01 -1.873243e-03 3.280942e-01 4.317412e-01 -1.677237e-03 3.252366e-01 6.716340e-02 -1.960065e-04 2.857551e-03
161            4.989659e-01 -1.984471e-03 3.283849e-01 4.318808e-01 -1.794926e-03 3.255242e-01 6.708515e-02 -1.895453e-04 2.860737e-03
162            4.990334e-01 -2.013634e-03 3.285537e-01 4.320245e-01 -1.832202e-03 3.256910e-01 6.700886e-02 -1.814328e-04 2.862664e-03
163            4.991043e-01 -1.986902e-03 3.286192e-01 4.321693e-01 -1.814653e-03 3.257555e-01 6.693496e-02 -1.722492e-04 2.863776e-03
164            4.991813e-01 -1.934725e-03 3.286190e-01 4.323182e-01 -1.772462e-03 3.257552e-01 6.686312e-02 -1.622630e-04 2.863739e-03
165            4.992616e-01 -1.893444e-03 3.286120e-01 4.324684e-01 -1.741244e-03 3.257496e-01 6.679319e-02 -1.522000e-04 2.862449e-03
166            4.993513e-01 -1.890730e-03 3.286553e-01 4.326261e-01 -1.748092e-03 3.257950e-01 6.672518e-02 -1.426380e-04 2.860354e-03
167            4.994460e-01 -1.946180e-03 3.287921e-01 4.327869e-01 -1.812128e-03 3.259343e-01 6.665911e-02 -1.340520e-04 2.857871e-03
168            4.995430e-01 -2.063410e-03 3.290430e-01 4.329483e-01 -1.936340e-03 3.261883e-01 6.659465e-02 -1.270705e-04 2.854716e-03
169            4.996305e-01 -2.238259e-03 3.294059e-01 4.330989e-01 -2.115879e-03 3.265547e-01 6.653167e-02 -1.223794e-04 2.851180e-03
170            4.997007e-01 -2.445513e-03 3.298511e-01 4.332307e-01 -2.325479e-03 3.270043e-01 6.647004e-02 -1.200344e-04 2.846814e-03
171            4.997428e-01 -2.660917e-03 3.303294e-01 4.333329e-01 -2.540723e-03 3.274875e-01 6.640993e-02 -1.201940e-04 2.841925e-03
172            4.997516e-01 -2.848939e-03 3.307805e-01 4.334005e-01 -2.726751e-03 3.279441e-01 6.635115e-02 -1.221882e-04 2.836429e-03
173            4.997165e-01 -2.983141e-03 3.311517e-01 4.334214e-01 -2.857773e-03 3.283212e-01 6.629513e-02 -1.253683e-04 2.830494e-03
174            4.996323e-01 -3.039484e-03 3.313992e-01 4.333901e-01 -2.910611e-03 3.285751e-01 6.624218e-02 -1.288735e-04 2.824150e-03
175            4.994916e-01 -3.014506e-03 3.315042e-01 4.332986e-01 -2.881828e-03 3.286856e-01 6.619301e-02 -1.326782e-04 2.818576e-03
176            4.992999e-01 -2.908829e-03 3.314734e-01 4.331520e-01 -2.772381e-03 3.286595e-01 6.614789e-02 -1.364486e-04 2.813937e-03
177            4.990640e-01 -2.739942e-03 3.313329e-01 4.329574e-01 -2.599323e-03 3.285214e-01 6.610659e-02 -1.406185e-04 2.811486e-03
178            4.988045e-01 -2.530040e-03 3.311211e-01 4.327356e-01 -2.384747e-03 3.283098e-01 6.606886e-02 -1.452932e-04 2.811266e-03
179            4.985422e-01 -2.312470e-03 3.308984e-01 4.325079e-01 -2.161850e-03 3.280841e-01 6.603428e-02 -1.506192e-04 2.814229e-03
180            4.983043e-01 -2.111889e-03 3.306950e-01 4.323004e-01 -1.955038e-03 3.278750e-01 6.600393e-02 -1.568511e-04 2.820011e-03
181            4.981015e-01 -1.950572e-03 3.305433e-01 4.321237e-01 -1.786939e-03 3.277150e-01 6.597785e-02 -1.636337e-04 2.828344e-03
182            4.979500e-01 -1.840301e-03 3.304514e-01 4.319937e-01 -1.669990e-03 3.276138e-01 6.595630e-02 -1.703117e-04 2.837580e-03
183            4.978469e-01 -1.779683e-03 3.304120e-01 4.319080e-01 -1.603667e-03 3.275650e-01 6.593890e-02 -1.760152e-04 2.847040e-03
184            4.977765e-01 -1.755161e-03 3.303880e-01 4.318511e-01 -1.575057e-03 3.275320e-01 6.592538e-02 -1.801034e-04 2.855925e-03
185            4.977101e-01 -1.750464e-03 3.303313e-01 4.317953e-01 -1.567593e-03 3.274676e-01 6.591485e-02 -1.828705e-04 2.863728e-03
186            4.976307e-01 -1.749217e-03 3.302003e-01 4.317238e-01 -1.564394e-03 3.273301e-01 6.590690e-02 -1.848225e-04 2.870267e-03
187            4.975259e-01 -1.729500e-03 3.299744e-01 4.316253e-01 -1.543465e-03 3.270985e-01 6.590053e-02 -1.860351e-04 2.875916e-03
188            4.973904e-01 -1.687474e-03 3.296457e-01 4.314950e-01 -1.500178e-03 3.267652e-01 6.589535e-02 -1.872954e-04 2.880433e-03
189            4.972322e-01 -1.609263e-03 3.292349e-01 4.313419e-01 -1.420955e-03 3.263512e-01 6.589031e-02 -1.883072e-04 2.883722e-03
190            4.970602e-01 -1.517497e-03 3.287792e-01 4.311735e-01 -1.327291e-03 3.258924e-01 6.588668e-02 -1.902054e-04 2.886866e-03
191            4.968894e-01 -1.404158e-03 3.283260e-01 4.310058e-01 -1.213273e-03 3.254362e-01 6.588360e-02 -1.908846e-04 2.889769e-03
192            4.967245e-01 -1.314338e-03 3.279164e-01 4.308428e-01 -1.122656e-03 3.250228e-01 6.588167e-02 -1.916815e-04 2.893683e-03
193            4.965903e-01 -1.241470e-03 3.275869e-01 4.307098e-01 -1.051088e-03 3.246891e-01 6.588050e-02 -1.903818e-04 2.897856e-03
194            4.964988e-01 -1.228292e-03 3.273615e-01 4.306161e-01 -1.039044e-03 3.244565e-01 6.588267e-02 -1.892476e-04 2.905068e-03
195            4.964596e-01 -1.269208e-03 3.272318e-01 4.305711e-01 -1.082386e-03 3.243159e-01 6.588847e-02 -1.868217e-04 2.915879e-03
196            4.964744e-01 -1.375004e-03 3.271766e-01 4.305765e-01 -1.191367e-03 3.242461e-01 6.589786e-02 -1.836372e-04 2.930458e-03
197            4.965484e-01 -1.527781e-03 3.271760e-01 4.306375e-01 -1.348166e-03 3.242277e-01 6.591087e-02 -1.796154e-04 2.948329e-03
198            4.966941e-01 -1.702409e-03 3.272043e-01 4.307655e-01 -1.528272e-03 3.242325e-01 6.592857e-02 -1.741373e-04 2.971741e-03
199            4.969206e-01 -1.869592e-03 3.272341e-01 4.309696e-01 -1.701834e-03 3.242342e-01 6.595097e-02 -1.677581e-04 2.999861e-03
200            4.972421e-01 -1.991177e-03 3.272544e-01 4.312633e-01 -1.830592e-03 3.242203e-01 6.597880e-02 -1.605843e-04 3.034026e-03
201            4.976710e-01 -2.038465e-03 3.272623e-01 4.316591e-01 -1.886422e-03 3.241874e-01 6.601191e-02 -1.520435e-04 3.074871e-03
202            4.982142e-01 -1.986244e-03 3.272615e-01 4.321650e-01 -1.842221e-03 3.241381e-01 6.604916e-02 -1.440225e-04 3.123420e-03
203            4.988625e-01 -1.827267e-03 3.272477e-01 4.327750e-01 -1.688747e-03 3.240686e-01 6.608744e-02 -1.385199e-04 3.179104e-03
204            4.996004e-01 -1.559543e-03 3.272060e-01 4.334774e-01 -1.421068e-03 3.239663e-01 6.612294e-02 -1.384742e-04 3.239725e-03
205            5.004051e-01 -1.205702e-03 3.271504e-01 4.342545e-01 -1.059555e-03 3.238498e-01 6.615059e-02 -1.461464e-04 3.300657e-03
206            5.012705e-01 -7.975190e-04 3.270862e-01 4.351041e-01 -6.341397e-04 3.237289e-01 6.616639e-02 -1.633793e-04 3.357336e-03
207            5.021232e-01 -3.802502e-04 3.270322e-01 4.359577e-01 -1.886602e-04 3.236254e-01 6.616553e-02 -1.915900e-04 3.406806e-03
208            5.029148e-01 6.777300e-06 3.269677e-01 4.367678e-01 2.354115e-04 3.235217e-01 6.614700e-02 -2.286342e-04 3.446016e-03
209            5.036246e-01 3.155532e-04 3.268957e-01 4.375110e-01 5.857965e-04 3.234222e-01 6.611358e-02 -2.702433e-04 3.473511e-03
210            5.042481e-01 5.079164e-04 3.268421e-01 4.381798e-01 8.186200e-04 3.233521e-01 6.606835e-02 -3.107035e-04 3.489997e-03
211            5.048102e-01 5.670430e-04 3.267806e-01 4.387962e-01 9.121947e-04 3.232840e-01 6.601397e-02 -3.451518e-04 3.496578e-03
212            5.053173e-01 4.891590e-04 3.266668e-01 4.393642e-01 8.604088e-04 3.231717e-01 6.595309e-02 -3.712498e-04 3.495066e-03
213            5.057687e-01 3.013568e-04 3.264735e-01 4.398815e-01 6.903368e-04 3.229874e-01 6.588724e-02 -3.889800e-04 3.486116e-03
214            5.061428e-01 4.386475e-05 3.261948e-01 4.403259e-01 4.430983e-04 3.227240e-01 6.581685e-02 -3.992335e-04 3.470733e-03
215            5.064126e-01 -2.206574e-04 3.258376e-01 4.406693e-01 1.826534e-04 3.223889e-01 6.574332e-02 -4.033108e-04 3.448666e-03
216            5.065586e-01 -4.409371e-04 3.254169e-01 4.408916e-01 -3.816273e-05 3.219962e-01 6.566699e-02 -4.027744e-04 3.420695e-03
217            5.065793e-01 -5.801282e-04 3.249578e-01 4.409894e-01 -1.812520e-04 3.215705e-01 6.558996e-02 -3.988761e-04 3.387350e-03
218            5.064794e-01 -6.290438e-04 3.244936e-01 4.409650e-01 -2.361605e-04 3.211443e-01 6.551440e-02 -3.928833e-04 3.349317e-03
219            5.062714e-01 -6.036120e-04 3.240378e-01 4.408291e-01 -2.184223e-04 3.207296e-01 6.544226e-02 -3.851897e-04 3.308190e-03
220            5.059685e-01 -5.334463e-04 3.235867e-01 4.405929e-01 -1.576953e-04 3.203223e-01 6.537566e-02 -3.757510e-04 3.264411e-03
221            5.055802e-01 -4.695320e-04 3.231234e-01 4.402652e-01 -1.042457e-04 3.199043e-01 6.531504e-02 -3.652863e-04 3.219052e-03