# Moment      
# CofR        : (-1.000000e+01 0.000000e+00 0.000000e+00)
#
# Time        	total_x total_y total_z	pressure_x pressure_y pressure_z	viscous_x viscous_y viscous_z
1              -5.381935e-05 -1.658292e+02 4.271826e-02 -5.373844e-05 -1.658491e+02 4.270159e-02 -8.091069e-08 1.988408e-02 1.667026e-05
2              -1.577029e-03 -5.290178e+01 4.578661e-01 -1.557417e-03 -5.302211e+01 4.546187e-01 -1.961287e-05 1.203315e-01 3.247450e-03
3              -9.086470e-03 -1.860069e+01 2.890090e+00 -9.081835e-03 -1.928968e+01 2.880424e+00 -4.635925e-06 6.889965e-01 9.665428e-03
4              -1.438645e-02 1.407707e+02 4.528203e+00 -1.446086e-02 1.406936e+02 4.536955e+00 7.440820e-05 7.712568e-02 -8.751638e-03
5              -5.280066e-03 2.397784e+01 2.715915e+00 -5.310804e-03 2.428812e+01 2.719194e+00 3.073827e-05 -3.102810e-01 -3.279550e-03
6              -4.746335e-03 -8.811945e+01 2.414422e+00 -4.672506e-03 -8.766679e+01 2.394542e+00 -7.382885e-05 -4.526568e-01 1.987997e-02
7              -6.972875e-03 -1.280098e+02 2.185205e+00 -6.938924e-03 -1.272665e+02 2.164064e+00 -3.395079e-05 -7.433657e-01 2.114168e-02
8              -8.793202e-03 -9.854222e+01 2.160065e+00 -8.725126e-03 -9.752928e+01 2.128254e+00 -6.807578e-05 -1.012939e+00 3.181015e-02
9              -8.285000e-03 -5.444991e+01 1.962521e+00 -8.184488e-03 -5.342078e+01 1.914932e+00 -1.005121e-04 -1.029130e+00 4.758914e-02
10             -8.076706e-03 -2.585381e+00 1.218289e+00 -7.832272e-03 -1.725126e+00 1.156578e+00 -2.444348e-04 -8.602546e-01 6.171158e-02
11             -4.518452e-03 3.958475e+01 9.150059e-03 -4.296057e-03 4.015456e+01 -4.858958e-02 -2.223953e-04 -5.698099e-01 5.773964e-02
12             1.044017e-03 6.535598e+01 -1.181515e+00 1.298590e-03 6.567066e+01 -1.242368e+00 -2.545731e-04 -3.146825e-01 6.085269e-02
13             9.699631e-03 7.570893e+01 -2.414910e+00 9.885532e-03 7.583542e+01 -2.464116e+00 -1.859012e-04 -1.264876e-01 4.920592e-02
14             1.510452e-02 7.551561e+01 -3.249325e+00 1.530971e-02 7.555157e+01 -3.299470e+00 -2.051919e-04 -3.595921e-02 5.014462e-02
15             1.654871e-02 6.870927e+01 -3.001899e+00 1.679725e-02 6.866520e+01 -3.060001e+00 -2.485377e-04 4.407134e-02 5.810249e-02
16             1.997479e-02 5.880231e+01 -3.060077e+00 2.025266e-02 5.870549e+01 -3.118531e+00 -2.778671e-04 9.681731e-02 5.845451e-02
17             2.202340e-02 5.145684e+01 -2.991725e+00 2.230679e-02 5.130300e+01 -3.057830e+00 -2.833877e-04 1.538328e-01 6.610509e-02
18             2.125054e-02 4.512605e+01 -2.719176e+00 2.155218e-02 4.492927e+01 -2.792215e+00 -3.016386e-04 1.967783e-01 7.303932e-02
19             1.785206e-02 3.956813e+01 -2.254494e+00 1.812561e-02 3.935723e+01 -2.319703e+00 -2.735561e-04 2.108996e-01 6.520922e-02
20             1.220815e-02 3.264572e+01 -1.495762e+00 1.245277e-02 3.245879e+01 -1.555620e+00 -2.446184e-04 1.869264e-01 5.985822e-02
21             6.854263e-03 2.404379e+01 -6.471609e-01 7.142766e-03 2.387818e+01 -7.123225e-01 -2.885035e-04 1.656084e-01 6.516155e-02
22             3.024858e-03 1.474643e+01 1.810031e-01 3.280099e-03 1.464332e+01 1.232733e-01 -2.552412e-04 1.031073e-01 5.772974e-02
23             -2.801967e-04 6.882182e+00 1.016278e+00 -4.366715e-05 6.820568e+00 9.577521e-01 -2.365296e-04 6.161346e-02 5.852593e-02
24             -2.233229e-03 1.304972e+00 1.599334e+00 -2.014225e-03 1.264338e+00 1.543686e+00 -2.190046e-04 4.063420e-02 5.564829e-02
25             -3.411156e-03 -2.179950e+00 1.899827e+00 -3.148383e-03 -2.203776e+00 1.837319e+00 -2.627731e-04 2.382621e-02 6.250787e-02
26             -3.740062e-03 -3.786824e+00 1.936232e+00 -3.467885e-03 -3.803503e+00 1.875888e+00 -2.721769e-04 1.667897e-02 6.034376e-02
27             -3.609829e-03 -4.640409e+00 1.775234e+00 -3.300717e-03 -4.649455e+00 1.710881e+00 -3.091121e-04 9.045933e-03 6.435356e-02
28             -2.732742e-03 -5.208583e+00 1.395196e+00 -2.431604e-03 -5.217732e+00 1.337772e+00 -3.011376e-04 9.149306e-03 5.742455e-02
29             -2.250498e-03 -5.411569e+00 1.088471e+00 -1.937246e-03 -5.421471e+00 1.026788e+00 -3.132521e-04 9.901453e-03 6.168309e-02
30             -2.440048e-03 -5.110026e+00 1.009510e+00 -2.145931e-03 -5.124123e+00 9.503417e-01 -2.941175e-04 1.409636e-02 5.916804e-02
31             -3.185432e-03 -4.651940e+00 1.160775e+00 -2.911258e-03 -4.668805e+00 1.097695e+00 -2.741734e-04 1.686555e-02 6.308014e-02
32             -3.743534e-03 -4.080320e+00 1.367016e+00 -3.508883e-03 -4.101989e+00 1.306793e+00 -2.346505e-04 2.166881e-02 6.022292e-02
33             -3.577177e-03 -3.646307e+00 1.453347e+00 -3.367907e-03 -3.667873e+00 1.390658e+00 -2.092702e-04 2.156623e-02 6.268947e-02
34             -2.905058e-03 -3.464425e+00 1.348269e+00 -2.722227e-03 -3.486251e+00 1.289540e+00 -1.828317e-04 2.182634e-02 5.872921e-02
35             -2.221603e-03 -3.564161e+00 1.113323e+00 -2.053308e-03 -3.585914e+00 1.057967e+00 -1.682949e-04 2.175237e-02 5.535601e-02
36             -1.851868e-03 -3.904711e+00 8.232551e-01 -1.708408e-03 -3.925202e+00 7.747629e-01 -1.434599e-04 2.049115e-02 4.849225e-02
37             -1.648171e-03 -4.404638e+00 5.237675e-01 -1.540383e-03 -4.424217e+00 4.839380e-01 -1.077880e-04 1.957868e-02 3.982947e-02
38             -1.415144e-03 -4.921648e+00 2.438547e-01 -1.353112e-03 -4.938553e+00 2.146993e-01 -6.203116e-05 1.690481e-02 2.915539e-02
39             -9.387212e-04 -5.366978e+00 -9.817381e-03 -9.174770e-04 -5.380651e+00 -2.895583e-02 -2.124423e-05 1.367330e-02 1.913845e-02
40             -3.993529e-04 -5.707693e+00 -2.134765e-01 -4.172293e-04 -5.717744e+00 -2.225312e-01 1.787644e-05 1.005186e-02 9.054762e-03
41             -5.670504e-05 -5.926282e+00 -3.507977e-01 -1.010082e-04 -5.934219e+00 -3.529082e-01 4.430316e-05 7.937070e-03 2.110519e-03
42             2.437780e-04 -6.093042e+00 -4.599236e-01 1.783315e-04 -6.099223e+00 -4.562059e-01 6.544653e-05 6.181385e-03 -3.717687e-03
43             4.254396e-04 -6.139401e+00 -5.362371e-01 3.428530e-04 -6.145283e+00 -5.291684e-01 8.258662e-05 5.881607e-03 -7.068699e-03
44             6.151262e-04 -6.133319e+00 -5.907277e-01 5.166187e-04 -6.138078e+00 -5.821273e-01 9.850753e-05 4.759634e-03 -8.600360e-03
45             9.068931e-04 -6.098900e+00 -6.248167e-01 7.995277e-04 -6.102543e+00 -6.165759e-01 1.073654e-04 3.643440e-03 -8.240860e-03
46             1.116960e-03 -6.059711e+00 -6.261351e-01 1.007237e-03 -6.062074e+00 -6.187066e-01 1.097234e-04 2.362726e-03 -7.428457e-03
47             1.081008e-03 -5.985404e+00 -5.831710e-01 9.723906e-04 -5.986176e+00 -5.765743e-01 1.086172e-04 7.723132e-04 -6.596659e-03
48             7.185587e-04 -5.860513e+00 -4.849921e-01 6.172441e-04 -5.859239e+00 -4.796508e-01 1.013146e-04 -1.274756e-03 -5.341317e-03
49             -9.737884e-06 -5.667396e+00 -3.219224e-01 -1.028535e-04 -5.663697e+00 -3.176291e-01 9.311563e-05 -3.698224e-03 -4.293270e-03
50             -9.903332e-04 -5.446393e+00 -9.932679e-02 -1.069684e-03 -5.439765e+00 -9.737762e-02 7.935083e-05 -6.627985e-03 -1.949173e-03
51             -2.028137e-03 -5.224273e+00 1.515629e-01 -2.092702e-03 -5.215185e+00 1.509778e-01 6.456494e-05 -9.088397e-03 5.850521e-04
52             -2.901535e-03 -5.016317e+00 3.834126e-01 -2.947332e-03 -5.005207e+00 3.793097e-01 4.579624e-05 -1.110928e-02 4.102874e-03
53             -3.424479e-03 -4.835541e+00 5.468626e-01 -3.453574e-03 -4.823141e+00 5.399503e-01 2.909527e-05 -1.239976e-02 6.912244e-03
54             -3.562626e-03 -4.682094e+00 6.244813e-01 -3.576150e-03 -4.668243e+00 6.148820e-01 1.352478e-05 -1.385151e-02 9.599291e-03
55             -3.370651e-03 -4.548721e+00 6.238446e-01 -3.372448e-03 -4.533474e+00 6.127332e-01 1.796840e-06 -1.524783e-02 1.111138e-02
56             -2.963958e-03 -4.438477e+00 5.706223e-01 -2.955976e-03 -4.421635e+00 5.583381e-01 -7.981925e-06 -1.684104e-02 1.228422e-02
57             -2.442218e-03 -4.348678e+00 4.843120e-01 -2.428260e-03 -4.330273e+00 4.715948e-01 -1.395821e-05 -1.840525e-02 1.271722e-02
58             -1.858026e-03 -4.274432e+00 3.766833e-01 -1.839494e-03 -4.254291e+00 3.637388e-01 -1.853174e-05 -2.014077e-02 1.294453e-02
59             -1.235446e-03 -4.203523e+00 2.534857e-01 -1.215019e-03 -4.181953e+00 2.408614e-01 -2.042662e-05 -2.156925e-02 1.262428e-02
60             -6.103832e-04 -4.127434e+00 1.239129e-01 -5.887118e-04 -4.104479e+00 1.118809e-01 -2.167143e-05 -2.295535e-02 1.203198e-02
61             -9.714756e-06 -4.044870e+00 -2.409134e-03 1.348432e-05 -4.020834e+00 -1.367431e-02 -2.319908e-05 -2.403535e-02 1.126517e-02
62             5.374848e-04 -3.958050e+00 -1.162299e-01 5.632193e-04 -3.932865e+00 -1.267269e-01 -2.573456e-05 -2.518487e-02 1.049702e-02
63             1.001713e-03 -3.867078e+00 -2.113444e-01 1.029521e-03 -3.840790e+00 -2.208547e-01 -2.780784e-05 -2.628846e-02 9.510332e-03
64             1.356387e-03 -3.773022e+00 -2.833465e-01 1.385470e-03 -3.745458e+00 -2.919380e-01 -2.908354e-05 -2.756401e-02 8.591498e-03
65             1.589163e-03 -3.686229e+00 -3.310548e-01 1.617401e-03 -3.657301e+00 -3.384384e-01 -2.823774e-05 -2.892847e-02 7.383664e-03
66             1.721560e-03 -3.594627e+00 -3.597264e-01 1.747804e-03 -3.564159e+00 -3.660145e-01 -2.624406e-05 -3.046846e-02 6.288111e-03
67             1.769615e-03 -3.468046e+00 -3.711160e-01 1.791863e-03 -3.436233e+00 -3.759807e-01 -2.224752e-05 -3.181240e-02 4.864667e-03
68             1.714602e-03 -3.401795e+00 -3.635308e-01 1.732335e-03 -3.368553e+00 -3.670542e-01 -1.773248e-05 -3.324218e-02 3.523340e-03
69             1.578745e-03 -3.328672e+00 -3.404256e-01 1.591341e-03 -3.294186e+00 -3.425383e-01 -1.259632e-05 -3.448573e-02 2.112700e-03
70             1.366480e-03 -3.251576e+00 -3.047376e-01 1.373409e-03 -3.215880e+00 -3.055603e-01 -6.929199e-06 -3.569562e-02 8.226910e-04
71             1.087024e-03 -3.169151e+00 -2.599552e-01 1.088310e-03 -3.132480e+00 -2.595679e-01 -1.285448e-06 -3.667071e-02 -3.873646e-04
72             7.553340e-04 -3.080787e+00 -2.096990e-01 7.512472e-04 -3.043194e+00 -2.082863e-01 4.086784e-06 -3.759258e-02 -1.412711e-03
73             3.973821e-04 -2.989413e+00 -1.578744e-01 3.885883e-04 -2.951131e+00 -1.556145e-01 8.793852e-06 -3.828196e-02 -2.259940e-03
74             4.281769e-05 -2.902217e+00 -1.079076e-01 3.013357e-05 -2.863345e+00 -1.049863e-01 1.268412e-05 -3.887208e-02 -2.921322e-03
75             -2.705794e-04 -2.827223e+00 -6.401341e-02 -2.863935e-04 -2.787926e+00 -6.057312e-02 1.581415e-05 -3.929655e-02 -3.440293e-03
76             -5.101444e-04 -2.771189e+00 -2.998087e-02 -5.287702e-04 -2.731546e+00 -2.612565e-02 1.862585e-05 -3.964345e-02 -3.855225e-03
77             -6.580950e-04 -2.736030e+00 -7.917457e-03 -6.793078e-04 -2.696110e+00 -3.692096e-03 2.121281e-05 -3.992003e-02 -4.225361e-03
78             -7.152401e-04 -2.718420e+00 2.519492e-03 -7.390863e-04 -2.678249e+00 7.102786e-03 2.384613e-05 -4.017083e-02 -4.583295e-03
79             -6.962075e-04 -2.712596e+00 3.090621e-03 -7.227392e-04 -2.672212e+00 8.026881e-03 2.653166e-05 -4.038320e-02 -4.936261e-03
80             -6.207593e-04 -2.712701e+00 -3.958824e-03 -6.501802e-04 -2.672148e+00 1.336947e-03 2.942096e-05 -4.055338e-02 -5.295771e-03
81             -5.136744e-04 -2.713739e+00 -1.580615e-02 -5.460542e-04 -2.673079e+00 -1.015812e-02 3.237984e-05 -4.065986e-02 -5.648025e-03
82             -3.987229e-04 -2.712114e+00 -2.975163e-02 -4.339935e-04 -2.671421e+00 -2.377189e-02 3.527058e-05 -4.069300e-02 -5.979741e-03
83             -2.980328e-04 -2.705468e+00 -4.313506e-02 -3.358666e-04 -2.664822e+00 -3.687106e-02 3.783376e-05 -4.064634e-02 -6.263996e-03
84             -2.282560e-04 -2.692395e+00 -5.368691e-02 -2.681791e-04 -2.651873e+00 -4.720027e-02 3.992312e-05 -4.052166e-02 -6.486643e-03
85             -2.021893e-04 -2.672662e+00 -5.922370e-02 -2.433639e-04 -2.632357e+00 -5.261346e-02 4.117453e-05 -4.030498e-02 -6.610239e-03
86             -2.214436e-04 -2.647484e+00 -5.866408e-02 -2.629000e-04 -2.607482e+00 -5.204031e-02 4.145645e-05 -4.000244e-02 -6.623775e-03
87             -2.806487e-04 -2.620133e+00 -5.167071e-02 -3.213106e-04 -2.580513e+00 -4.516174e-02 4.066190e-05 -3.961967e-02 -6.508974e-03
88             -3.650961e-04 -2.595948e+00 -3.913219e-02 -4.039153e-04 -2.556748e+00 -3.287416e-02 3.881919e-05 -3.920082e-02 -6.258038e-03
89             -4.581721e-04 -2.580922e+00 -2.265967e-02 -4.941953e-04 -2.542128e+00 -1.679283e-02 3.602322e-05 -3.879329e-02 -5.866840e-03
90             -5.388875e-04 -2.580084e+00 -5.121726e-03 -5.714801e-04 -2.541622e+00 2.438721e-04 3.259264e-05 -3.846110e-02 -5.365598e-03
91             -5.935736e-04 -2.595168e+00 1.084485e-02 -6.224183e-04 -2.556939e+00 1.562933e-02 2.884469e-05 -3.822927e-02 -4.784485e-03
92             -6.159882e-04 -2.622446e+00 2.335374e-02 -6.412312e-04 -2.584354e+00 2.755164e-02 2.524300e-05 -3.809171e-02 -4.197906e-03
93             -6.014807e-04 -2.661953e+00 3.035586e-02 -6.236025e-04 -2.623939e+00 3.400448e-02 2.212180e-05 -3.801399e-02 -3.648619e-03
94             -5.534518e-04 -2.707275e+00 3.075010e-02 -5.732104e-04 -2.669315e+00 3.392960e-02 1.975854e-05 -3.796043e-02 -3.179501e-03
95             -4.939070e-04 -2.750612e+00 2.743060e-02 -5.122669e-04 -2.712747e+00 3.025164e-02 1.835990e-05 -3.786426e-02 -2.821041e-03
96             -4.268681e-04 -2.788640e+00 2.041551e-02 -4.448169e-04 -2.750948e+00 2.300476e-02 1.794875e-05 -3.769189e-02 -2.589254e-03
97             -3.616099e-04 -2.818958e+00 1.091342e-02 -3.799170e-04 -2.781543e+00 1.338212e-02 1.830708e-05 -3.741416e-02 -2.468701e-03
98             -3.059963e-04 -2.840530e+00 3.936476e-04 -3.251369e-04 -2.803501e+00 2.831552e-03 1.914056e-05 -3.702936e-02 -2.437904e-03
99             -2.681840e-04 -2.853829e+00 -9.269866e-03 -2.883589e-04 -2.817285e+00 -6.803605e-03 2.017491e-05 -3.654362e-02 -2.466261e-03
100            -2.526558e-04 -2.860832e+00 -1.645806e-02 -2.738495e-04 -2.824852e+00 -1.392932e-02 2.119369e-05 -3.597929e-02 -2.528735e-03
101            -2.618503e-04 -2.864799e+00 -1.970856e-02 -2.839025e-04 -2.829425e+00 -1.711241e-02 2.205213e-05 -3.537434e-02 -2.596147e-03
102            -2.928708e-04 -2.869604e+00 -1.833534e-02 -3.155569e-04 -2.834837e+00 -1.568825e-02 2.268604e-05 -3.476705e-02 -2.647087e-03
103            -3.397787e-04 -2.878741e+00 -1.247009e-02 -3.629046e-04 -2.844535e+00 -9.802421e-03 2.312586e-05 -3.420632e-02 -2.667672e-03
104            -3.917327e-04 -2.895070e+00 -3.411646e-03 -4.152082e-04 -2.861353e+00 -7.480251e-04 2.347546e-05 -3.371755e-02 -2.663621e-03
105            -4.403463e-04 -2.917318e+00 7.327356e-03 -4.641413e-04 -2.884002e+00 9.963484e-03 2.379492e-05 -3.331610e-02 -2.636128e-03
106            -4.777030e-04 -2.945299e+00 1.809982e-02 -5.018924e-04 -2.912307e+00 2.070334e-02 2.418940e-05 -3.299173e-02 -2.603527e-03
107            -4.968859e-04 -2.974661e+00 2.678888e-02 -5.216549e-04 -2.941932e+00 2.937553e-02 2.476900e-05 -3.272899e-02 -2.586650e-03
108            -4.944475e-04 -3.002642e+00 3.203166e-02 -5.200081e-04 -2.970140e+00 3.463392e-02 2.556062e-05 -3.250175e-02 -2.602266e-03
109            -4.727508e-04 -3.026402e+00 3.343668e-02 -4.992853e-04 -2.994122e+00 3.609026e-02 2.653446e-05 -3.228031e-02 -2.653576e-03
110            -4.362546e-04 -3.044127e+00 3.113794e-02 -4.638709e-04 -3.012091e+00 3.387851e-02 2.761630e-05 -3.203652e-02 -2.740569e-03
111            -3.923902e-04 -3.055384e+00 2.591873e-02 -4.210975e-04 -3.023634e+00 2.877393e-02 2.870727e-05 -3.175087e-02 -2.855199e-03
112            -3.482165e-04 -3.061061e+00 1.882406e-02 -3.778899e-04 -3.029644e+00 2.180940e-02 2.967345e-05 -3.141684e-02 -2.985346e-03
113            -3.112674e-04 -3.063021e+00 1.121715e-02 -3.416565e-04 -3.031983e+00 1.433174e-02 3.038911e-05 -3.103880e-02 -3.114596e-03
114            -2.866045e-04 -3.063720e+00 4.366417e-03 -3.173644e-04 -3.033088e+00 7.594097e-03 3.075987e-05 -3.063233e-02 -3.227680e-03
115            -2.775061e-04 -3.065642e+00 -5.346316e-04 -3.082275e-04 -3.035427e+00 2.773992e-03 3.072144e-05 -3.021567e-02 -3.308624e-03
116            -2.837807e-04 -3.070835e+00 -2.738410e-03 -3.140339e-04 -3.041021e+00 6.055368e-04 3.025318e-05 -2.981448e-02 -3.343946e-03
117            -3.020197e-04 -3.080463e+00 -2.075713e-03 -3.313971e-04 -3.051018e+00 1.250350e-03 2.937740e-05 -2.944514e-02 -3.326063e-03
118            -3.263279e-04 -3.094583e+00 1.016074e-03 -3.544910e-04 -3.065462e+00 4.269539e-03 2.816310e-05 -2.912147e-02 -3.253465e-03
119            -3.496378e-04 -3.112149e+00 5.608910e-03 -3.763371e-04 -3.083302e+00 8.741435e-03 2.669934e-05 -2.884686e-02 -3.132525e-03
120            -3.652900e-04 -3.131291e+00 1.054569e-02 -3.904078e-04 -3.102676e+00 1.352340e-02 2.511772e-05 -2.861476e-02 -2.977711e-03
121            -3.685922e-04 -3.149759e+00 1.470785e-02 -3.921407e-04 -3.121342e+00 1.751268e-02 2.354849e-05 -2.841712e-02 -2.804830e-03
122            -3.568858e-04 -3.165407e+00 1.714733e-02 -3.789417e-04 -3.137176e+00 1.977684e-02 2.205586e-05 -2.823128e-02 -2.629513e-03
123            -3.306976e-04 -3.176825e+00 1.733715e-02 -3.514055e-04 -3.148776e+00 1.980111e-02 2.070787e-05 -2.804889e-02 -2.463962e-03
124            -2.926882e-04 -3.183625e+00 1.512915e-02 -3.122235e-04 -3.155772e+00 1.744886e-02 1.953528e-05 -2.785260e-02 -2.319710e-03
125            -2.475379e-04 -3.186512e+00 1.077411e-02 -2.660292e-04 -3.158864e+00 1.297087e-02 1.849132e-05 -2.764757e-02 -2.196765e-03
126            -2.006423e-04 -3.187014e+00 4.835422e-03 -2.181711e-04 -3.159586e+00 6.931962e-03 1.752876e-05 -2.742822e-02 -2.096540e-03
127            -1.574730e-04 -3.187110e+00 -1.855040e-03 -1.740707e-04 -3.159897e+00 1.597392e-04 1.659775e-05 -2.721315e-02 -2.014779e-03
128            -1.230124e-04 -3.188610e+00 -8.331524e-03 -1.386624e-04 -3.161601e+00 -6.386716e-03 1.565003e-05 -2.700853e-02 -1.944808e-03
129            -1.005149e-04 -3.192816e+00 -1.365787e-02 -1.151907e-04 -3.165982e+00 -1.177650e-02 1.467582e-05 -2.683398e-02 -1.881375e-03
130            -9.083170e-05 -3.200224e+00 -1.711641e-02 -1.045019e-04 -3.173535e+00 -1.529903e-02 1.367020e-05 -2.668917e-02 -1.817380e-03
131            -9.249271e-05 -3.210554e+00 -1.832450e-02 -1.051453e-04 -3.183969e+00 -1.657815e-02 1.265263e-05 -2.658439e-02 -1.746348e-03
132            -1.025002e-04 -3.222889e+00 -1.727206e-02 -1.141600e-04 -3.196385e+00 -1.560616e-02 1.165978e-05 -2.650429e-02 -1.665899e-03
133            -1.162460e-04 -3.235949e+00 -1.438193e-02 -1.270187e-04 -3.209501e+00 -1.280185e-02 1.077266e-05 -2.644789e-02 -1.580082e-03
134            -1.292618e-04 -3.248274e+00 -1.029403e-02 -1.393305e-04 -3.221874e+00 -8.800711e-03 1.006877e-05 -2.639921e-02 -1.493320e-03
135            -1.375565e-04 -3.258640e+00 -5.803594e-03 -1.471843e-04 -3.232288e+00 -4.386571e-03 9.627756e-06 -2.635197e-02 -1.417024e-03
136            -1.384122e-04 -3.266168e+00 -1.700427e-03 -1.479035e-04 -3.239879e+00 -3.411188e-04 9.491280e-06 -2.628835e-02 -1.359308e-03
137            -1.309157e-04 -3.270653e+00 1.372200e-03 -1.405707e-04 -3.244445e+00 2.696079e-03 9.655025e-06 -2.620737e-02 -1.323879e-03
138            -1.157061e-04 -3.272610e+00 2.990503e-03 -1.258031e-04 -3.246505e+00 4.306660e-03 1.009694e-05 -2.610427e-02 -1.316157e-03
139            -9.483139e-05 -3.273150e+00 2.994500e-03 -1.056051e-04 -3.247161e+00 4.334994e-03 1.077373e-05 -2.598960e-02 -1.340494e-03
140            -7.134276e-05 -3.273590e+00 1.507300e-03 -8.295781e-05 -3.247723e+00 2.901294e-03 1.161505e-05 -2.586649e-02 -1.393994e-03
141            -4.897362e-05 -3.275136e+00 -1.045168e-03 -6.150906e-05 -3.249391e+00 4.242062e-04 1.253544e-05 -2.574479e-02 -1.469374e-03
142            -3.146980e-05 -3.278026e+00 -4.102016e-03 -4.495123e-05 -3.252394e+00 -2.538857e-03 1.348143e-05 -2.563231e-02 -1.563159e-03
143            -2.010723e-05 -3.283524e+00 -7.025501e-03 -3.452773e-05 -3.257969e+00 -5.354270e-03 1.442050e-05 -2.555566e-02 -1.671231e-03
144            -1.556616e-05 -3.291174e+00 -9.230382e-03 -3.085236e-05 -3.265664e+00 -7.450004e-03 1.528620e-05 -2.550964e-02 -1.780378e-03
145            -1.875084e-05 -3.299136e+00 -1.026480e-02 -3.481008e-05 -3.273647e+00 -8.385212e-03 1.605924e-05 -2.548902e-02 -1.879588e-03
146            -2.762830e-05 -3.306757e+00 -9.970781e-03 -4.436184e-05 -3.281265e+00 -8.005094e-03 1.673354e-05 -2.549164e-02 -1.965687e-03
147            -3.901051e-05 -3.313247e+00 -8.488312e-03 -5.632447e-05 -3.287736e+00 -6.452333e-03 1.731395e-05 -2.551108e-02 -2.035979e-03
148            -5.017219e-05 -3.317955e+00 -6.105855e-03 -6.799972e-05 -3.292417e+00 -4.019651e-03 1.782754e-05 -2.553833e-02 -2.086204e-03
149            -5.811322e-05 -3.320583e+00 -3.344204e-03 -7.640045e-05 -3.295019e+00 -1.223924e-03 1.828723e-05 -2.556399e-02 -2.120280e-03
150            -6.040359e-05 -3.321223e+00 -7.798909e-04 -7.908296e-05 -3.295643e+00 1.356211e-03 1.867937e-05 -2.557976e-02 -2.136102e-03
151            -5.595225e-05 -3.320381e+00 1.077184e-03 -7.494193e-05 -3.294786e+00 3.212461e-03 1.898968e-05 -2.559502e-02 -2.135277e-03
152            -4.505602e-05 -3.318806e+00 1.859606e-03 -6.430080e-05 -3.293205e+00 3.986724e-03 1.924478e-05 -2.560161e-02 -2.127118e-03
153            -2.855441e-05 -3.317428e+00 1.331881e-03 -4.801522e-05 -3.291822e+00 3.451930e-03 1.946082e-05 -2.560581e-02 -2.120049e-03
154            -8.792460e-06 -3.317039e+00 -4.589844e-04 -2.839307e-05 -3.291428e+00 1.652332e-03 1.960061e-05 -2.561057e-02 -2.111316e-03
155            1.204656e-05 -3.318162e+00 -3.328893e-03 -7.606428e-06 -3.292539e+00 -1.223492e-03 1.965299e-05 -2.562289e-02 -2.105401e-03
156            3.155177e-05 -3.320873e+00 -6.881490e-03 1.198445e-05 -3.295230e+00 -4.784217e-03 1.956732e-05 -2.564359e-02 -2.097273e-03
157            4.803287e-05 -3.324929e+00 -1.066355e-02 2.870716e-05 -3.299250e+00 -8.578501e-03 1.932571e-05 -2.567920e-02 -2.085048e-03
158            6.015701e-05 -3.329714e+00 -1.417805e-02 4.125623e-05 -3.303996e+00 -1.211668e-02 1.890078e-05 -2.571827e-02 -2.061366e-03
159            6.821346e-05 -3.334479e+00 -1.709280e-02 4.988523e-05 -3.308717e+00 -1.506559e-02 1.832822e-05 -2.576188e-02 -2.027213e-03
160            7.287411e-05 -3.338564e+00 -1.914472e-02 5.524952e-05 -3.312760e+00 -1.716566e-02 1.762459e-05 -2.580452e-02 -1.979058e-03
161            7.566965e-05 -3.341520e+00 -2.027149e-02 5.882933e-05 -3.315679e+00 -1.835703e-02 1.684032e-05 -2.584085e-02 -1.914460e-03
162            7.823223e-05 -3.343226e+00 -2.056198e-02 6.224515e-05 -3.317362e+00 -1.872888e-02 1.598708e-05 -2.586433e-02 -1.833093e-03
163            8.248382e-05 -3.343876e+00 -2.028353e-02 6.734859e-05 -3.317996e+00 -1.854276e-02 1.513522e-05 -2.587937e-02 -1.740775e-03
164            8.973369e-05 -3.343851e+00 -1.974743e-02 7.540455e-05 -3.317968e+00 -1.810718e-02 1.432915e-05 -2.588269e-02 -1.640254e-03
165            1.009416e-04 -3.343758e+00 -1.932431e-02 8.732207e-05 -3.317884e+00 -1.778543e-02 1.361949e-05 -2.587331e-02 -1.538881e-03
166            1.158235e-04 -3.344178e+00 -1.929660e-02 1.027978e-04 -3.318322e+00 -1.785407e-02 1.302567e-05 -2.585580e-02 -1.442525e-03
167            1.334652e-04 -3.345554e+00 -1.986397e-02 1.209104e-04 -3.319720e+00 -1.850795e-02 1.255475e-05 -2.583443e-02 -1.356020e-03
168            1.522318e-04 -3.348098e+00 -2.106309e-02 1.400077e-04 -3.322292e+00 -1.977734e-02 1.222402e-05 -2.580644e-02 -1.285743e-03
169            1.706074e-04 -3.351788e+00 -2.285052e-02 1.585444e-04 -3.326013e+00 -2.161189e-02 1.206298e-05 -2.577477e-02 -1.238624e-03
170            1.865001e-04 -3.356320e+00 -2.496889e-02 1.744592e-04 -3.330585e+00 -2.375368e-02 1.204092e-05 -2.573492e-02 -1.215211e-03
171            1.986085e-04 -3.361193e+00 -2.716984e-02 1.864565e-04 -3.335503e+00 -2.595278e-02 1.215200e-05 -2.568990e-02 -1.217059e-03
172            2.055096e-04 -3.365789e+00 -2.909120e-02 1.931530e-04 -3.340150e+00 -2.785381e-02 1.235664e-05 -2.563879e-02 -1.237392e-03
173            2.071187e-04 -3.369570e+00 -3.046286e-02 1.945014e-04 -3.343987e+00 -2.919323e-02 1.261727e-05 -2.558313e-02 -1.269631e-03
174            2.036408e-04 -3.372090e+00 -3.104006e-02 1.907620e-04 -3.346567e+00 -2.973501e-02 1.287880e-05 -2.552307e-02 -1.305049e-03
175            1.964496e-04 -3.373158e+00 -3.078720e-02 1.832920e-04 -3.347688e+00 -2.944387e-02 1.315757e-05 -2.547037e-02 -1.343328e-03
176            1.867335e-04 -3.372846e+00 -2.971151e-02 1.732673e-04 -3.347420e+00 -2.833041e-02 1.346611e-05 -2.542664e-02 -1.381108e-03
177            1.761945e-04 -3.371423e+00 -2.799162e-02 1.623220e-04 -3.346018e+00 -2.656887e-02 1.387252e-05 -2.540452e-02 -1.422752e-03
178            1.662626e-04 -3.369282e+00 -2.585458e-02 1.518750e-04 -3.343877e+00 -2.438525e-02 1.438765e-05 -2.540450e-02 -1.469323e-03
179            1.581926e-04 -3.367035e+00 -2.364028e-02 1.431931e-04 -3.341599e+00 -2.211795e-02 1.499949e-05 -2.543622e-02 -1.522326e-03
180            1.524990e-04 -3.364993e+00 -2.160092e-02 1.367619e-04 -3.339497e+00 -2.001650e-02 1.573719e-05 -2.549598e-02 -1.584418e-03
181            1.492581e-04 -3.363480e+00 -1.996350e-02 1.327181e-04 -3.337898e+00 -1.831141e-02 1.653999e-05 -2.558114e-02 -1.652085e-03
182            1.478512e-04 -3.362575e+00 -1.884800e-02 1.305431e-04 -3.336900e+00 -1.712922e-02 1.730806e-05 -2.567511e-02 -1.718784e-03
183            1.473957e-04 -3.362203e+00 -1.823994e-02 1.294538e-04 -3.336432e+00 -1.646414e-02 1.794191e-05 -2.577111e-02 -1.775802e-03
184            1.464402e-04 -3.361985e+00 -1.800104e-02 1.280602e-04 -3.336124e+00 -1.618430e-02 1.837995e-05 -2.586108e-02 -1.816739e-03
185            1.440964e-04 -3.361434e+00 -1.796460e-02 1.254424e-04 -3.335494e+00 -1.612007e-02 1.865407e-05 -2.593995e-02 -1.844530e-03
186            1.398739e-04 -3.360126e+00 -1.796279e-02 1.210714e-04 -3.334121e+00 -1.609858e-02 1.880255e-05 -2.600588e-02 -1.864211e-03
187            1.332060e-04 -3.357851e+00 -1.777214e-02 1.143591e-04 -3.331789e+00 -1.589568e-02 1.884698e-05 -2.606268e-02 -1.876459e-03
188            1.254574e-04 -3.354531e+00 -1.735229e-02 1.065676e-04 -3.328423e+00 -1.546310e-02 1.888977e-05 -2.610793e-02 -1.889193e-03
189            1.165430e-04 -3.350376e+00 -1.656284e-02 9.762495e-05 -3.324235e+00 -1.466350e-02 1.891802e-05 -2.614078e-02 -1.899334e-03
190            1.093071e-04 -3.345765e+00 -1.563264e-02 9.023753e-05 -3.319593e+00 -1.371432e-02 1.906955e-05 -2.617205e-02 -1.918321e-03
191            1.029538e-04 -3.341180e+00 -1.448277e-02 8.379927e-05 -3.314980e+00 -1.255783e-02 1.915450e-05 -2.620088e-02 -1.924935e-03
192            1.014365e-04 -3.337044e+00 -1.357010e-02 8.208497e-05 -3.310805e+00 -1.163737e-02 1.935152e-05 -2.623991e-02 -1.932729e-03
193            1.031638e-04 -3.333723e+00 -1.283127e-02 8.375150e-05 -3.307441e+00 -1.091186e-02 1.941226e-05 -2.628162e-02 -1.919408e-03
194            1.108299e-04 -3.331458e+00 -1.269943e-02 9.124778e-05 -3.305104e+00 -1.079158e-02 1.958216e-05 -2.635378e-02 -1.907858e-03
195            1.223462e-04 -3.330161e+00 -1.312009e-02 1.026329e-04 -3.303699e+00 -1.123663e-02 1.971328e-05 -2.646198e-02 -1.883463e-03
196            1.377682e-04 -3.329616e+00 -1.420241e-02 1.179042e-04 -3.303008e+00 -1.235077e-02 1.986405e-05 -2.660790e-02 -1.851642e-03
197            1.546897e-04 -3.329615e+00 -1.576553e-02 1.346911e-04 -3.302828e+00 -1.395391e-02 1.999857e-05 -2.678671e-02 -1.811621e-03
198            1.707307e-04 -3.329892e+00 -1.755485e-02 1.506130e-04 -3.302871e+00 -1.579761e-02 2.011764e-05 -2.702088e-02 -1.757244e-03
199            1.835337e-04 -3.330168e+00 -1.927263e-02 1.632861e-04 -3.302866e+00 -1.757856e-02 2.024756e-05 -2.730198e-02 -1.694067e-03
200            1.907930e-04 -3.330329e+00 -2.053144e-02 1.703484e-04 -3.302686e+00 -1.890830e-02 2.044459e-05 -2.764338e-02 -1.623136e-03
201            1.904444e-04 -3.330347e+00 -2.103953e-02 1.697712e-04 -3.302296e+00 -1.950086e-02 2.067321e-05 -2.805144e-02 -1.538672e-03
202            1.812745e-04 -3.330261e+00 -2.054027e-02 1.601884e-04 -3.301725e+00 -1.908074e-02 2.108604e-05 -2.853654e-02 -1.459532e-03
203            1.632774e-04 -3.330034e+00 -1.895890e-02 1.414789e-04 -3.300941e+00 -1.755323e-02 2.179851e-05 -2.909324e-02 -1.405679e-03
204            1.374339e-04 -3.329522e+00 -1.627431e-02 1.144467e-04 -3.299822e+00 -1.486780e-02 2.298720e-05 -2.969976e-02 -1.406507e-03
205            1.061995e-04 -3.328874e+00 -1.271528e-02 8.146728e-05 -3.298563e+00 -1.123064e-02 2.473218e-05 -3.031010e-02 -1.484644e-03
206            7.339348e-05 -3.328144e+00 -8.603297e-03 4.629753e-05 -3.297265e+00 -6.944738e-03 2.709595e-05 -3.087870e-02 -1.658559e-03
207            4.248027e-05 -3.327529e+00 -4.396477e-03 1.234456e-05 -3.296153e+00 -2.454044e-03 3.013571e-05 -3.137628e-02 -1.942433e-03
208            1.522604e-05 -3.326821e+00 -4.932932e-04 -1.845072e-05 -3.295049e+00 1.821423e-03 3.367677e-05 -3.177223e-02 -2.314716e-03
209            -6.032104e-06 -3.326043e+00 2.621028e-03 -4.341974e-05 -3.293992e+00 5.353575e-03 3.738764e-05 -3.205169e-02 -2.732547e-03
210            -1.877121e-05 -3.325451e+00 4.562310e-03 -5.954019e-05 -3.293229e+00 7.700866e-03 4.076898e-05 -3.222149e-02 -3.138557e-03
211            -2.164228e-05 -3.324774e+00 5.161783e-03 -6.506643e-05 -3.292481e+00 8.645725e-03 4.342415e-05 -3.229246e-02 -3.483942e-03
212            -1.391060e-05 -3.323560e+00 4.382697e-03 -5.903526e-05 -3.291277e+00 8.128011e-03 4.512466e-05 -3.228261e-02 -3.745314e-03
213            3.038693e-06 -3.321535e+00 2.499539e-03 -4.287548e-05 -3.289336e+00 6.422101e-03 4.591418e-05 -3.219836e-02 -3.922562e-03
214            2.699356e-05 -3.318642e+00 -8.079257e-05 -1.892945e-05 -3.286593e+00 3.943926e-03 4.592301e-05 -3.204983e-02 -4.024719e-03
215            5.387020e-05 -3.314959e+00 -2.725932e-03 8.519014e-06 -3.283125e+00 1.338997e-03 4.535119e-05 -3.183440e-02 -4.064928e-03
216            7.986047e-05 -3.310642e+00 -4.919556e-03 3.542994e-05 -3.279082e+00 -8.606136e-04 4.443053e-05 -3.155993e-02 -4.058942e-03